/*--------------------------------*- C++ -*----------------------------------*\
  =========                 |
  \\      /  F ield         | OpenFOAM: The Open Source CFD Toolbox
   \\    /   O peration     | Website:  https://openfoam.org
    \\  /    A nd           | Version:  dev
     \\/     M anipulation  |
\*---------------------------------------------------------------------------*/
FoamFile
{
    version     2.0;
    format      ascii;
    class       volScalarField;
    location    "681";
    object      nut;
}
// * * * * * * * * * * * * * * * * * * * * * * * * * * * * * * * * * * * * * //

dimensions      [0 2 -1 0 0 0 0];

internalField   nonuniform List<scalar> 
90000
(
1.74776e-14
7.02466e-13
7.53011e-12
4.1143e-11
1.5459e-10
4.61139e-10
1.17935e-09
2.70564e-09
5.73077e-09
1.14272e-08
2.17532e-08
3.99505e-08
7.13684e-08
1.24828e-07
2.14853e-07
3.65146e-07
6.13629e-07
1.019e-06
1.66835e-06
2.68525e-06
4.23594e-06
6.52932e-06
9.81175e-06
1.76323e-05
3.09528e-05
4.90529e-05
7.20987e-05
0.000100088
0.000132902
0.000170333
0.000212099
0.000257845
0.00030713
0.000359414
0.00041403
0.00047017
0.000526869
0.000583002
0.000637313
0.000688465
0.00073511
0.00077596
0.00080975
0.000837629
0.000860722
0.000879971
0.000896137
0.000909824
0.000921506
0.000931548
0.000940236
0.00094779
0.000954386
0.00096016
0.000965227
0.000969676
0.000973585
0.000977019
0.000980034
0.000982677
0.000984991
0.000987012
0.000988773
0.000990303
0.000991626
0.000992764
0.000993737
0.000994561
0.00099525
0.000995815
0.000996266
0.000996606
0.000996838
0.000996957
0.000996957
0.000996847
0.000996632
0.000996317
0.000995901
0.000995379
0.000994745
0.000993988
0.000993098
0.00099206
0.000990858
0.000989474
0.000987885
0.000986069
0.000983998
0.000981642
0.000978966
0.000975931
0.000972491
0.000968594
0.000964181
0.000959179
0.000953504
0.000947053
0.000939698
0.00093128
0.000921601
0.000910403
0.000897362
0.000882061
0.000863972
0.000842433
0.000816631
0.000785589
0.000748181
0.000705032
0.000657278
0.000606111
0.000552737
0.000498315
0.000443906
0.000390446
0.00033873
0.000289425
0.000243078
0.00020014
0.00016098
0.000125898
9.51326e-05
6.88577e-05
4.71698e-05
3.00617e-05
1.73788e-05
9.82802e-06
6.53745e-06
4.24001e-06
2.68729e-06
1.66938e-06
1.0195e-06
6.13879e-07
3.65266e-07
2.1491e-07
1.24855e-07
7.13802e-08
3.99557e-08
2.17553e-08
1.14281e-08
5.73109e-09
2.70575e-09
1.17938e-09
4.61147e-10
1.54591e-10
4.11431e-11
7.5301e-12
7.02463e-13
1.74775e-14
1.20536e-17
2.3328e-15
6.14593e-14
6.14588e-13
3.65918e-12
1.59303e-11
5.64045e-11
1.72649e-10
4.74456e-10
1.19995e-09
2.84055e-09
6.36896e-09
1.36404e-08
2.80724e-08
5.57406e-08
1.07052e-07
1.99084e-07
3.58452e-07
6.24111e-07
1.04906e-06
1.70038e-06
2.65847e-06
4.01725e-06
7.1188e-06
1.24673e-05
1.97723e-05
2.92925e-05
4.12884e-05
5.60088e-05
7.36767e-05
9.4475e-05
0.000118532
0.000145909
0.000176582
0.000210437
0.000247253
0.000286698
0.000328327
0.000371588
0.000415838
0.000460368
0.000504451
0.000547398
0.000588653
0.000627797
0.000664548
0.000698741
0.00073031
0.000759269
0.000785689
0.00080968
0.000831382
0.000850945
0.000868528
0.000884288
0.000898377
0.000910941
0.000922117
0.000932033
0.000940807
0.000948549
0.000955359
0.000961328
0.000966538
0.000971066
0.000974976
0.00097833
0.000981179
0.000983567
0.00098553
0.000987095
0.000988281
0.000989091
0.000989514
0.000989515
0.000989123
0.000988373
0.000987275
0.000985827
0.000984014
0.000981814
0.000979198
0.000976126
0.000972556
0.000968436
0.00096371
0.000958313
0.000952176
0.000945221
0.000937363
0.00092851
0.00091856
0.000907406
0.000894931
0.000881011
0.000865514
0.000848302
0.000829236
0.000808174
0.000784983
0.000759539
0.000731743
0.00070153
0.000668885
0.000633858
0.000596582
0.00055729
0.000516328
0.000474164
0.000431382
0.000388625
0.000346533
0.000305708
0.000266678
0.000229888
0.000195686
0.000164323
0.000135956
0.000110659
8.84259e-05
6.91842e-05
5.28068e-05
3.91223e-05
2.79276e-05
1.89991e-05
1.21048e-05
7.01506e-06
4.01852e-06
2.65873e-06
1.70032e-06
1.04894e-06
6.24025e-07
3.58401e-07
1.99056e-07
1.07039e-07
5.57341e-08
2.80694e-08
1.36391e-08
6.36837e-09
2.84029e-09
1.19984e-09
4.74417e-10
1.72635e-10
5.64e-11
1.59291e-11
3.6589e-12
6.14542e-13
6.14547e-14
2.33263e-15
1.20527e-17
4.81145e-18
9.32733e-16
2.46496e-14
2.47603e-13
1.48296e-12
6.50468e-12
2.32455e-11
7.19556e-11
2.00403e-10
5.14864e-10
1.24117e-09
2.84124e-09
6.22823e-09
1.31498e-08
2.6843e-08
5.309e-08
1.01801e-07
1.89099e-07
3.39635e-07
5.88476e-07
9.81674e-07
1.57524e-06
2.43341e-06
4.38476e-06
7.80507e-06
1.24411e-05
1.84305e-05
2.59329e-05
3.5122e-05
4.61776e-05
5.92775e-05
7.45891e-05
9.22603e-05
0.000112411
0.00013512
0.000160421
0.000188285
0.000218621
0.000251262
0.00028597
0.000322436
0.00036029
0.000399115
0.000438467
0.000477896
0.000516967
0.000555277
0.000592468
0.000628235
0.000662336
0.000694585
0.000724856
0.000753076
0.000779215
0.000803285
0.000825328
0.00084541
0.000863617
0.000880046
0.000894803
0.000907997
0.000919738
0.000930137
0.000939297
0.000947321
0.000954301
0.000960324
0.000965468
0.000969799
0.000973373
0.000976234
0.000978404
0.00097989
0.000980665
0.000980666
0.000979949
0.000978573
0.000976562
0.000973915
0.000970612
0.000966619
0.000961888
0.000956362
0.000949975
0.000942653
0.000934314
0.000924872
0.000914234
0.000902305
0.000888987
0.00087418
0.000857789
0.000839721
0.000819893
0.000798233
0.000774685
0.000749217
0.000721824
0.000692537
0.000661423
0.000628599
0.000594228
0.000558527
0.000521762
0.000484249
0.000446341
0.000408422
0.000370891
0.000334148
0.000298572
0.000264509
0.000232255
0.00020205
0.00017407
0.000148428
0.000125178
0.000104321
8.58112e-05
6.95623e-05
5.54592e-05
4.33642e-05
3.31253e-05
2.45832e-05
1.75782e-05
1.19567e-05
7.57834e-06
4.32244e-06
2.4348e-06
1.57592e-06
9.8203e-07
5.88676e-07
3.3975e-07
1.89164e-07
1.01836e-07
5.31088e-08
2.68525e-08
1.31545e-08
6.23044e-09
2.84224e-09
1.24161e-09
5.15044e-10
2.00473e-10
7.19806e-11
2.32536e-11
6.50695e-12
1.48347e-12
2.47689e-13
2.46581e-14
9.33057e-16
4.81312e-18
3.15514e-18
6.11646e-16
1.61643e-14
1.62374e-13
9.72559e-13
4.26646e-12
1.52503e-11
4.72252e-11
1.31611e-10
3.38474e-10
8.17238e-10
1.8752e-09
4.12477e-09
8.75139e-09
1.79835e-08
3.58777e-08
6.95442e-08
1.30892e-07
2.3876e-07
4.20893e-07
7.14882e-07
1.16724e-06
1.83063e-06
3.34386e-06
6.01621e-06
9.60679e-06
1.41876e-05
1.98545e-05
2.67219e-05
3.49171e-05
4.4575e-05
5.58333e-05
6.88281e-05
8.36878e-05
0.000100528
0.000119445
0.000140508
0.000163754
0.000189179
0.000216734
0.00024632
0.000277785
0.000310927
0.000345496
0.000381199
0.000417713
0.000454691
0.000491781
0.00052863
0.000564904
0.000600292
0.00063452
0.000667352
0.000698594
0.0007281
0.000755764
0.000781522
0.000805347
0.000827242
0.000847239
0.000865392
0.000881769
0.000896453
0.000909534
0.000921105
0.000931261
0.000940093
0.000947687
0.000954121
0.000959457
0.000963746
0.000967011
0.000969251
0.000970421
0.000970423
0.00096934
0.000967265
0.000964239
0.000960268
0.000955332
0.000949393
0.000942396
0.000934275
0.000924956
0.00091436
0.000902401
0.000888997
0.000874065
0.000857529
0.00083932
0.00081938
0.000797671
0.000774172
0.000748888
0.000721851
0.000693126
0.000662815
0.000631055
0.000598023
0.000563931
0.000529027
0.000493586
0.000457906
0.0004223
0.000387083
0.000352564
0.000319038
0.00028677
0.000255995
0.000226905
0.000199651
0.000174339
0.000151029
0.000129744
0.000110467
9.31511e-05
7.77233e-05
6.40903e-05
5.21444e-05
4.17685e-05
3.28405e-05
2.5238e-05
1.8842e-05
1.35408e-05
9.23449e-06
5.84004e-06
3.29531e-06
1.83098e-06
1.16722e-06
7.14791e-07
4.20816e-07
2.38711e-07
1.30865e-07
6.953e-08
3.58705e-08
1.798e-08
8.74973e-09
4.124e-09
1.87486e-09
8.17091e-10
3.38413e-10
1.31588e-10
4.72169e-11
1.52476e-11
4.2657e-12
9.72388e-13
1.62345e-13
1.61614e-14
6.11538e-16
3.15458e-18
2.31706e-18
4.49179e-16
1.18707e-14
1.19244e-13
7.1424e-13
3.13335e-12
1.12007e-11
3.46889e-11
9.66927e-11
2.48753e-10
6.00931e-10
1.38004e-09
3.03959e-09
6.46185e-09
1.33177e-08
2.66824e-08
5.20301e-08
9.87121e-08
1.81882e-07
3.24494e-07
5.58586e-07
9.24937e-07
1.47062e-06
2.72908e-06
4.98257e-06
8.00882e-06
1.18419e-05
1.6538e-05
2.21735e-05
2.88399e-05
3.66394e-05
4.56815e-05
5.60796e-05
6.79481e-05
8.13984e-05
9.65351e-05
0.000113452
0.000132226
0.000152914
0.000175545
0.000200119
0.0002266
0.000254909
0.000284931
0.000316507
0.000349436
0.000383484
0.000418382
0.000453841
0.000489555
0.000525211
0.000560502
0.000595133
0.000628832
0.000661354
0.000692488
0.000722059
0.00074993
0.000776002
0.000800212
0.000822531
0.000842955
0.000861511
0.000878239
0.0008932
0.00090646
0.000918096
0.000928179
0.00093678
0.000943958
0.000949754
0.000954185
0.000957233
0.000958829
0.000958832
0.000957356
0.000954531
0.000950422
0.000945051
0.000938406
0.000930454
0.000921146
0.000910421
0.000898214
0.000884459
0.000869093
0.00085206
0.000833313
0.000812823
0.000790578
0.00076659
0.000740897
0.000713565
0.000684693
0.000654412
0.000622885
0.000590307
0.000556899
0.000522908
0.000488596
0.000454238
0.000420112
0.00038649
0.000353632
0.00032178
0.000291147
0.000261917
0.00023424
0.00020823
0.000183966
0.000161493
0.000140821
0.000121937
0.000104799
8.93474e-05
7.55057e-05
6.31859e-05
5.22919e-05
4.27232e-05
3.4378e-05
2.71558e-05
2.09605e-05
1.57028e-05
1.13034e-05
7.69654e-06
4.83452e-06
2.6889e-06
1.47088e-06
9.24881e-07
5.58479e-07
3.2441e-07
1.81829e-07
9.86828e-08
5.20145e-08
2.66744e-08
1.33138e-08
6.45994e-09
3.0387e-09
1.37964e-09
6.00754e-10
2.4868e-10
9.66644e-11
3.46787e-11
1.11974e-11
3.13243e-12
7.14031e-13
1.19209e-13
1.18672e-14
4.49047e-16
2.31638e-18
1.86194e-18
3.60951e-16
9.53908e-15
9.58229e-14
5.73956e-13
2.51796e-12
9.00118e-12
2.78783e-11
7.77159e-11
1.99964e-10
4.83194e-10
1.11012e-09
2.4467e-09
5.20668e-09
1.07472e-08
2.15806e-08
4.22165e-08
8.04491e-08
1.49103e-07
2.67978e-07
4.65273e-07
7.77577e-07
1.24811e-06
2.34444e-06
4.3342e-06
7.00989e-06
1.03846e-05
1.44902e-05
1.93781e-05
2.5115e-05
3.178e-05
3.94606e-05
4.82507e-05
5.82482e-05
6.95527e-05
8.22627e-05
9.6473e-05
0.000112271
0.000129734
0.000148923
0.000169882
0.000192631
0.000217162
0.000243438
0.000271386
0.0003009
0.000331837
0.000364016
0.000397228
0.000431231
0.000465763
0.000500544
0.000535287
0.000569705
0.000603517
0.000636462
0.000668297
0.000698809
0.000727817
0.000755174
0.000780767
0.000804516
0.000826373
0.000846319
0.000864359
0.000880514
0.000894821
0.000907326
0.000918072
0.000927098
0.000934426
0.000940054
0.000943938
0.000945976
0.000945979
0.000944094
0.000940494
0.000935273
0.000928477
0.000920111
0.000910161
0.000898593
0.000885369
0.000870448
0.000853796
0.000835386
0.000815206
0.000793265
0.000769591
0.000744239
0.000717294
0.000688866
0.000659099
0.000628162
0.000596253
0.00056359
0.000530413
0.000496971
0.00046352
0.000430317
0.000397609
0.000365631
0.000334597
0.000304697
0.000276094
0.00024892
0.000223277
0.000199235
0.000176836
0.000156095
0.000137
0.000119522
0.000103612
8.92056e-05
7.62304e-05
6.46047e-05
5.42423e-05
4.50549e-05
3.69541e-05
2.98536e-05
2.36713e-05
1.83307e-05
1.37637e-05
9.91292e-06
6.73507e-06
4.2039e-06
2.30958e-06
1.24836e-06
7.77537e-07
4.65183e-07
2.67906e-07
1.49058e-07
8.04237e-08
4.22031e-08
2.15737e-08
1.07438e-08
5.20505e-09
2.44594e-09
1.10978e-09
4.83046e-10
1.99903e-10
7.76921e-11
2.78697e-11
8.99843e-12
2.51719e-12
5.73781e-13
9.57936e-14
9.53616e-15
3.60841e-16
1.86137e-18
1.55204e-18
3.00875e-16
7.95142e-15
7.98744e-14
4.78431e-13
2.09891e-12
7.50326e-12
2.32397e-11
6.47886e-11
1.66719e-10
4.02925e-10
9.25954e-10
2.04166e-09
4.34763e-09
8.98315e-09
1.80657e-08
3.54193e-08
6.77103e-08
1.26043e-07
2.27839e-07
3.98424e-07
6.71381e-07
1.08701e-06
2.06504e-06
3.86256e-06
6.29513e-06
9.35972e-06
1.30701e-05
1.7461e-05
2.25814e-05
2.84928e-05
3.52663e-05
4.298e-05
5.17176e-05
6.15665e-05
7.2616e-05
8.49552e-05
9.86707e-05
0.000113844
0.00013055
0.000148849
0.00016879
0.000190403
0.000213694
0.000238646
0.000265213
0.000293316
0.000322847
0.000353663
0.000385591
0.000418426
0.000451938
0.000485877
0.000519976
0.000553963
0.000587563
0.000620508
0.000652544
0.000683438
0.000712982
0.000740995
0.00076733
0.000791868
0.000814525
0.000835242
0.000853986
0.000870744
0.000885516
0.000898308
0.000909126
0.00091796
0.000924777
0.000929497
0.000931979
0.000931983
0.000929687
0.00092531
0.000918984
0.000910785
0.000900747
0.000888881
0.000875186
0.000859655
0.000842286
0.000823084
0.000802073
0.000779295
0.000754812
0.000728717
0.000701125
0.000672181
0.000642056
0.000610942
0.000579054
0.000546622
0.000513886
0.00048109
0.000448478
0.000416285
0.000384732
0.000354024
0.000324342
0.000295841
0.000268651
0.000242872
0.000218577
0.000195812
0.0001746
0.000154938
0.000136806
0.000120167
0.00010497
9.11535e-05
7.86468e-05
6.7375e-05
5.72596e-05
4.8221e-05
4.01802e-05
3.30604e-05
2.67884e-05
2.12962e-05
1.65227e-05
1.24151e-05
8.93216e-06
6.04506e-06
3.74441e-06
2.03376e-06
1.08712e-06
6.71266e-07
3.98293e-07
2.27745e-07
1.25985e-07
6.76781e-08
3.54022e-08
1.8057e-08
8.9788e-09
4.34552e-09
2.04067e-09
9.25506e-10
4.0273e-10
1.66638e-10
6.47573e-11
2.32285e-11
7.49964e-12
2.09789e-12
4.782e-13
7.98359e-14
7.94758e-15
3.0073e-16
1.55129e-18
1.33539e-18
2.58874e-16
6.84144e-15
6.87244e-14
4.11646e-13
1.80592e-12
6.45597e-12
1.99963e-11
5.57486e-11
1.43465e-10
3.46764e-10
7.97032e-10
1.7579e-09
3.74506e-09
7.74351e-09
1.55893e-08
3.06122e-08
5.86545e-08
1.09536e-07
1.98855e-07
3.49641e-07
5.92976e-07
9.66794e-07
1.85436e-06
3.50571e-06
5.75102e-06
8.58565e-06
1.20126e-05
1.60487e-05
2.07319e-05
2.61104e-05
3.22421e-05
3.91928e-05
4.70343e-05
5.58432e-05
6.56992e-05
7.66843e-05
8.88802e-05
0.000102367
0.000117222
0.000133513
0.000151303
0.000170639
0.000191555
0.000214066
0.000238162
0.000263814
0.000290961
0.000319513
0.000349353
0.00038033
0.000412266
0.000444954
0.000478165
0.000511652
0.000545154
0.000578406
0.000611139
0.000643096
0.000674033
0.000703722
0.000731962
0.000758579
0.000783426
0.000806384
0.000827361
0.000846289
0.000863115
0.000877799
0.000890301
0.00090057
0.000908531
0.000914065
0.000916981
0.000916985
0.000914287
0.000909155
0.000901763
0.000892224
0.00088061
0.000866967
0.000851334
0.000833745
0.000814243
0.000792883
0.000769738
0.000744903
0.000718498
0.000690666
0.000661573
0.000631408
0.00060038
0.000568711
0.000536634
0.000504388
0.000472208
0.000440325
0.000408956
0.000378304
0.00034855
0.000319852
0.000292343
0.00026613
0.000241294
0.000217891
0.000195953
0.000175491
0.000156496
0.000138942
0.00012279
0.000107989
9.44805e-05
8.21977e-05
7.10708e-05
6.10274e-05
5.19945e-05
4.38999e-05
3.66734e-05
3.02483e-05
2.45623e-05
1.95587e-05
1.51879e-05
1.1409e-05
8.19035e-06
5.52028e-06
3.39707e-06
1.82602e-06
9.66938e-07
5.92903e-07
3.49543e-07
1.98783e-07
1.09492e-07
5.86298e-08
3.05991e-08
1.55826e-08
7.74019e-09
3.74345e-09
1.75714e-09
7.96691e-10
3.46615e-10
1.43404e-10
5.57249e-11
1.99878e-11
6.45321e-12
1.80515e-12
4.1147e-13
6.86951e-14
6.83852e-15
2.58764e-16
1.33482e-18
1.1698e-18
2.26774e-16
5.9931e-15
6.02027e-14
3.60603e-13
1.582e-12
5.6555e-12
1.75173e-11
4.88384e-11
1.25688e-10
3.03819e-10
6.98416e-10
1.54072e-09
3.28351e-09
6.7928e-09
1.36865e-08
2.69089e-08
5.1652e-08
9.67078e-08
1.76188e-07
3.11212e-07
5.30739e-07
8.70706e-07
1.68477e-06
3.21805e-06
5.31706e-06
7.9712e-06
1.11775e-05
1.49488e-05
1.93053e-05
2.42877e-05
2.99435e-05
3.63284e-05
4.35043e-05
5.15386e-05
6.05025e-05
7.04704e-05
8.15183e-05
9.37225e-05
0.000107158
0.000121896
0.000138003
0.000155537
0.000174545
0.000195061
0.000217103
0.000240669
0.000265733
0.000292246
0.000320132
0.000349286
0.000379574
0.000410832
0.000442873
0.000475481
0.000508423
0.000541448
0.000574296
0.000606705
0.000638412
0.000669165
0.000698726
0.000726878
0.000753422
0.000778188
0.000801029
0.000821818
0.000840451
0.000856832
0.000870872
0.00088247
0.000891505
0.000897808
0.000901137
0.000901141
0.000898061
0.000892214
0.000883822
0.000873039
0.00085998
0.000844737
0.00082739
0.000808021
0.000786721
0.000763595
0.000738766
0.000712378
0.000684594
0.000655601
0.000625601
0.000594812
0.000563463
0.000531786
0.000500016
0.000468383
0.000437107
0.000406392
0.000376426
0.000347375
0.000319381
0.000292563
0.000267014
0.000242803
0.000219976
0.000198557
0.00017855
0.000159943
0.00014271
0.00012681
0.000112195
9.88086e-05
8.65879e-05
7.54676e-05
6.53801e-05
5.62574e-05
4.80325e-05
4.06402e-05
3.40184e-05
2.81086e-05
2.28575e-05
1.82174e-05
1.41473e-05
1.06137e-05
7.60185e-06
5.10138e-06
3.11703e-06
1.65876e-06
8.70833e-07
5.30667e-07
3.11119e-07
1.7612e-07
9.66661e-08
5.16286e-08
2.68965e-08
1.36801e-08
6.78963e-09
3.28197e-09
1.54e-09
6.9809e-10
3.03677e-10
1.2563e-10
4.88156e-11
1.75091e-11
5.65287e-12
1.58126e-12
3.60434e-13
6.01746e-14
5.99031e-15
2.26668e-16
1.16925e-18
1.04056e-18
2.0172e-16
5.33098e-15
5.35515e-14
3.20764e-13
1.40723e-12
5.03073e-12
1.55823e-11
4.34445e-11
1.1181e-10
2.70289e-10
6.21401e-10
1.37105e-09
2.92268e-09
6.04886e-09
1.21954e-08
2.40008e-08
4.61368e-08
8.65632e-08
1.58167e-07
2.80454e-07
4.80555e-07
7.92636e-07
1.54564e-06
2.98027e-06
4.95787e-06
7.46656e-06
1.04974e-05
1.40547e-05
1.81598e-05
2.28357e-05
2.81247e-05
3.40742e-05
4.07382e-05
4.8176e-05
5.64513e-05
6.56317e-05
7.57871e-05
8.69891e-05
9.93094e-05
0.000112818
0.000127583
0.000143667
0.000161124
0.000179999
0.000200326
0.000222122
0.000245387
0.000270099
0.000296215
0.000323663
0.000352349
0.000382146
0.000412902
0.000444439
0.000476551
0.000509014
0.000541583
0.000574004
0.000606013
0.000637347
0.000667748
0.000696967
0.00072477
0.000750941
0.000775284
0.000797624
0.000817799
0.000835663
0.00085107
0.00086387
0.000873886
0.000880898
0.00088461
0.000884614
0.00088118
0.000874674
0.000865365
0.000853456
0.000839109
0.000822461
0.00080364
0.000782778
0.000760011
0.000735492
0.000709388
0.000681884
0.00065318
0.000623492
0.000593046
0.000562074
0.000530811
0.000499489
0.000468333
0.000437555
0.000407352
0.000377902
0.000349361
0.000321861
0.000295511
0.000270397
0.00024658
0.000224101
0.00020298
0.00018322
0.000164806
0.000147712
0.0001319
0.000117324
0.000103928
9.16552e-05
8.04431e-05
7.02283e-05
6.0947e-05
5.25359e-05
4.49338e-05
3.80818e-05
3.19247e-05
2.64113e-05
2.14954e-05
1.71357e-05
1.32986e-05
9.96498e-06
7.11744e-06
4.75451e-06
2.88563e-06
1.52164e-06
7.92806e-07
4.80525e-07
2.80392e-07
1.58118e-07
8.65331e-08
4.61199e-08
2.39918e-08
1.21908e-08
6.04656e-09
2.92157e-09
1.37053e-09
6.21164e-10
2.70187e-10
1.11768e-10
4.3428e-11
1.55763e-11
5.02882e-12
1.40669e-12
3.20642e-13
5.35311e-14
5.32896e-15
2.01643e-16
1.04016e-18
9.36013e-19
1.81453e-16
4.79538e-15
4.81712e-14
2.88537e-13
1.26585e-12
4.52532e-12
1.40169e-11
3.90808e-11
1.00583e-10
2.43159e-10
5.59072e-10
1.23369e-09
2.63044e-09
5.44587e-09
1.09855e-08
2.16371e-08
4.16434e-08
7.82701e-08
1.43368e-07
2.55058e-07
4.38855e-07
7.27341e-07
1.42829e-06
2.77835e-06
4.65237e-06
7.03864e-06
9.92501e-06
1.33104e-05
1.72064e-05
2.16405e-05
2.66382e-05
3.22427e-05
3.85014e-05
4.54669e-05
5.31965e-05
6.17515e-05
7.11963e-05
8.15973e-05
9.30226e-05
0.00010554
0.000119216
0.000134114
0.000150292
0.000167803
0.000186689
0.000206981
0.000228694
0.000251827
0.000276361
0.000302253
0.000329435
0.000357814
0.00038727
0.000417656
0.000448797
0.000480495
0.000512529
0.000544657
0.000576627
0.000608173
0.000639029
0.000668928
0.00069761
0.000724826
0.00075034
0.000773929
0.000795386
0.00081451
0.000831104
0.000844962
0.000855853
0.000863503
0.000867562
0.000867566
0.000863811
0.000856711
0.000846584
0.000833681
0.000818212
0.000800364
0.000780312
0.000758233
0.000734309
0.000708734
0.000681713
0.000653463
0.000624212
0.000594194
0.000563646
0.000532807
0.000501908
0.000471172
0.000440808
0.000411008
0.000381943
0.000353764
0.000326598
0.00030055
0.0002757
0.000252108
0.00022981
0.000208826
0.000189159
0.000170795
0.000153708
0.000137863
0.000123215
0.000109714
9.73036e-05
8.59263e-05
7.55215e-05
6.60289e-05
5.73884e-05
4.95418e-05
4.24328e-05
3.60085e-05
3.02194e-05
2.50204e-05
2.037e-05
1.62348e-05
1.25913e-05
9.41795e-06
6.7063e-06
4.45933e-06
2.68905e-06
1.40593e-06
7.27504e-07
4.38832e-07
2.55004e-07
1.43326e-07
7.82438e-08
4.16285e-08
2.16292e-08
1.09814e-08
5.44385e-09
2.62946e-09
1.23324e-09
5.58865e-10
2.43069e-10
1.00545e-10
3.90663e-11
1.40117e-11
4.52365e-12
1.26538e-12
2.8843e-13
4.81533e-14
4.7936e-15
1.81386e-16
9.35666e-19
8.49906e-19
1.64761e-16
4.35424e-15
4.37398e-14
2.61994e-13
1.1494e-12
4.10905e-12
1.27276e-11
3.54865e-11
9.13341e-11
2.20809e-10
5.07719e-10
1.12049e-09
2.3895e-09
4.94843e-09
9.98644e-09
1.96827e-08
3.79204e-08
7.13794e-08
1.31024e-07
2.33768e-07
4.03694e-07
6.71937e-07
1.32786e-06
2.60418e-06
4.38799e-06
6.66858e-06
9.43193e-06
1.26731e-05
1.6399e-05
2.06276e-05
2.539e-05
3.07145e-05
3.66446e-05
4.32275e-05
5.05149e-05
5.85626e-05
6.74298e-05
7.71783e-05
8.78719e-05
9.95754e-05
0.000112353
0.000126269
0.000141381
0.000157746
0.000175411
0.000194416
0.000214787
0.000236539
0.000259669
0.000284154
0.00030995
0.000336991
0.000365183
0.000394407
0.000424517
0.00045534
0.000486678
0.00051831
0.000549995
0.000581478
0.000612489
0.000642755
0.000671999
0.000699948
0.000726334
0.000750898
0.000773387
0.000793553
0.00081115
0.000825917
0.000837571
0.000845783
0.000850148
0.000850152
0.000846113
0.00083849
0.000827649
0.00081389
0.000797471
0.000778624
0.000757573
0.000734535
0.000709734
0.000683399
0.000655765
0.000627074
0.00059757
0.0005675
0.000537105
0.000506619
0.000476267
0.000446256
0.000416778
0.000388001
0.000360076
0.000333126
0.000307255
0.000282542
0.000259046
0.000236804
0.000215836
0.000196146
0.000177723
0.000160543
0.000144573
0.000129771
0.000116089
0.000103476
9.18761e-05
8.12318e-05
7.14857e-05
6.25806e-05
5.44605e-05
4.70714e-05
4.03621e-05
3.42845e-05
2.87942e-05
2.38495e-05
1.94174e-05
1.54709e-05
1.19852e-05
8.94657e-06
6.35078e-06
4.20397e-06
2.51958e-06
1.30695e-06
6.72106e-07
4.03683e-07
2.33726e-07
1.3099e-07
7.13576e-08
3.79081e-08
1.96761e-08
9.98308e-09
4.94676e-09
2.38869e-09
1.12012e-09
5.07547e-10
2.20735e-10
9.13033e-11
3.54746e-11
1.27233e-11
4.10766e-12
1.14901e-12
2.61905e-13
4.3725e-14
4.35277e-15
1.64705e-16
8.49619e-19
7.77635e-19
1.5075e-16
3.98398e-15
4.00204e-14
2.39716e-13
1.05166e-12
3.75966e-12
1.16455e-11
3.24697e-11
8.35709e-11
2.02047e-10
4.64604e-10
1.02544e-09
2.18711e-09
4.53038e-09
9.14618e-09
1.80369e-08
3.47802e-08
6.55529e-08
1.20552e-07
2.15627e-07
3.73575e-07
6.24212e-07
1.24066e-06
2.4518e-06
4.1558e-06
6.34351e-06
8.99994e-06
1.21174e-05
1.5699e-05
1.97583e-05
2.4318e-05
2.94117e-05
3.50701e-05
4.13367e-05
4.82588e-05
5.58873e-05
6.42766e-05
7.34844e-05
8.35703e-05
9.45958e-05
0.000106623
0.000119713
0.000133926
0.000149318
0.00016594
0.000183837
0.000203044
0.000223584
0.000245468
0.000268689
0.000293221
0.000319018
0.000346009
0.000374099
0.000403166
0.000433062
0.000463612
0.000494616
0.000525848
0.000557065
0.000588003
0.000618388
0.000647935
0.000676353
0.000703353
0.000728643
0.000751934
0.000772937
0.000791357
0.000806887
0.000819189
0.000827882
0.000832512
0.000832517
0.000828232
0.00082016
0.000808712
0.000794234
0.00077703
0.000757377
0.000735541
0.000711778
0.000686347
0.000659504
0.000631509
0.000602621
0.000573096
0.000543182
0.00051312
0.000483138
0.000453446
0.000424237
0.000395683
0.000367933
0.000341112
0.000315326
0.000290655
0.000267159
0.000244878
0.000223835
0.000204034
0.000185468
0.000168117
0.000151949
0.000136928
0.000123007
0.000110138
9.82686e-05
8.7344e-05
7.73093e-05
6.81095e-05
5.96908e-05
5.20009e-05
4.499e-05
3.8611e-05
3.28202e-05
2.75758e-05
2.28448e-05
1.85976e-05
1.48074e-05
1.14561e-05
8.53335e-06
6.03843e-06
3.97974e-06
2.37136e-06
1.22101e-06
6.24381e-07
3.73573e-07
2.15592e-07
1.20522e-07
6.55342e-08
3.47696e-08
1.80313e-08
9.14328e-09
4.52894e-09
2.18641e-09
1.02511e-09
4.64456e-10
2.01983e-10
8.35443e-11
3.24593e-11
1.16418e-11
3.75847e-12
1.05133e-12
2.39639e-13
4.00077e-14
3.98271e-15
1.50702e-16
7.77387e-19
7.16151e-19
1.38831e-16
3.66898e-15
3.68562e-14
2.20762e-13
9.68516e-13
3.46242e-12
1.07248e-11
2.9903e-11
7.69659e-11
1.86084e-10
4.27916e-10
9.44534e-10
2.01481e-09
4.17433e-09
8.43006e-09
1.6633e-08
3.20972e-08
6.05643e-08
1.11558e-07
1.99988e-07
3.47487e-07
5.82654e-07
1.16416e-06
2.31708e-06
3.94959e-06
6.05446e-06
8.61638e-06
1.16256e-05
1.50823e-05
1.89966e-05
2.33871e-05
2.82799e-05
3.37108e-05
3.97117e-05
4.63268e-05
5.36032e-05
6.15911e-05
7.03441e-05
7.9918e-05
9.03711e-05
0.000101762
0.000114152
0.000127597
0.000142155
0.000157879
0.000174816
0.000193006
0.00021248
0.000233258
0.000255345
0.000278728
0.000303378
0.000329243
0.000356247
0.000384291
0.000413248
0.000442963
0.000473257
0.000503923
0.000534729
0.000565424
0.000595735
0.000625374
0.000654043
0.000681435
0.000707234
0.000731121
0.000752771
0.000771848
0.000787997
0.000800836
0.000809933
0.000814786
0.000814791
0.000810298
0.00080185
0.000789899
0.000774834
0.000757002
0.000736722
0.000714295
0.000690014
0.000664164
0.000637026
0.000608877
0.000579986
0.000550614
0.00052101
0.000491408
0.000462026
0.000433061
0.000404688
0.000377062
0.000350312
0.000324545
0.000299846
0.00027628
0.000253888
0.000232698
0.000212719
0.000193945
0.000176361
0.000159939
0.000144645
0.000130437
0.000117268
0.00010509
9.38511e-05
8.34974e-05
7.39766e-05
6.52366e-05
5.72267e-05
4.98982e-05
4.32049e-05
3.71036e-05
3.15523e-05
2.65182e-05
2.19696e-05
1.78781e-05
1.42223e-05
1.09874e-05
8.16631e-06
5.7607e-06
3.78066e-06
2.24036e-06
1.14564e-06
5.82826e-07
3.47494e-07
1.99961e-07
1.11534e-07
6.05488e-08
3.20884e-08
1.66282e-08
8.42763e-09
4.17312e-09
2.01422e-09
9.4426e-10
4.27791e-10
1.8603e-10
7.69435e-11
2.98943e-11
1.07217e-11
3.46141e-12
9.68234e-13
2.20698e-13
3.68455e-14
3.66792e-15
1.38791e-16
7.15943e-19
6.63201e-19
1.28566e-16
3.39771e-15
3.41312e-14
2.0444e-13
8.96908e-13
3.20643e-12
9.93192e-12
2.76924e-11
7.12773e-11
1.72334e-10
3.96313e-10
8.74837e-10
1.86634e-09
3.86741e-09
7.81242e-09
1.5421e-08
2.97783e-08
5.62444e-08
1.0375e-07
1.86362e-07
3.24659e-07
5.4611e-07
1.09641e-06
2.19687e-06
3.76473e-06
5.79485e-06
8.27208e-06
1.11852e-05
1.45321e-05
1.83199e-05
2.2564e-05
2.72872e-05
3.25179e-05
3.82936e-05
4.46474e-05
5.16238e-05
5.92698e-05
6.76352e-05
7.67724e-05
8.67364e-05
9.75834e-05
0.000109371
0.000122155
0.000135992
0.000150936
0.000167035
0.000184332
0.000202865
0.000222657
0.000243724
0.000266065
0.000289662
0.000314479
0.000340457
0.000367514
0.000395542
0.000424408
0.000453948
0.000483975
0.000514271
0.000544596
0.000574684
0.00060425
0.000632991
0.000660588
0.00068671
0.000711012
0.000733138
0.000752717
0.000769354
0.000782623
0.000792048
0.000797084
0.000797089
0.000792426
0.000783672
0.000771316
0.000755788
0.000737473
0.000716725
0.000693881
0.00066926
0.000643172
0.000615914
0.000587776
0.000559032
0.000529946
0.000500762
0.000471706
0.000442983
0.000414777
0.000387248
0.000360532
0.000334742
0.000309968
0.000286279
0.000263725
0.000242335
0.000222124
0.000203092
0.000185226
0.000168504
0.000152894
0.000138359
0.000124855
0.000112335
0.000100751
9.00515e-05
8.01859e-05
7.11038e-05
6.27557e-05
5.50941e-05
4.80733e-05
4.16507e-05
3.57843e-05
3.04409e-05
2.55876e-05
2.11947e-05
1.72382e-05
1.36997e-05
1.05674e-05
7.83672e-06
5.51126e-06
3.60224e-06
2.1235e-06
1.0789e-06
5.46284e-07
3.24672e-07
1.86341e-07
1.0373e-07
5.62313e-08
2.97708e-08
1.5417e-08
7.81036e-09
3.86638e-09
1.86585e-09
8.74604e-10
3.96208e-10
1.72288e-10
7.12583e-11
2.76851e-11
9.92929e-12
3.20558e-12
8.9667e-13
2.04386e-13
3.41221e-14
3.39681e-15
1.28532e-16
6.63024e-19
6.17137e-19
1.19637e-16
3.16171e-15
3.17605e-14
1.9024e-13
8.34612e-13
2.98373e-12
9.24214e-12
2.57693e-11
6.63282e-11
1.60371e-10
3.68816e-10
8.14185e-10
1.73712e-09
3.60018e-09
7.27439e-09
1.43645e-08
2.77544e-08
5.2468e-08
9.69082e-08
1.74384e-07
3.04513e-07
5.13713e-07
1.03596e-06
2.08879e-06
3.59772e-06
5.55974e-06
7.96021e-06
1.0787e-05
1.4036e-05
1.7712e-05
2.18276e-05
2.64026e-05
3.14626e-05
3.70382e-05
4.31682e-05
4.9886e-05
5.72373e-05
6.52685e-05
7.4029e-05
8.35706e-05
9.39467e-05
0.000105212
0.000117422
0.000130631
0.000144891
0.000160254
0.000176763
0.000194459
0.000213371
0.000233521
0.000254916
0.000277548
0.000301394
0.000326408
0.000352523
0.00037965
0.000407669
0.000436437
0.000465781
0.0004955
0.000525364
0.000555118
0.000584481
0.00061315
0.000640798
0.000667084
0.000691643
0.000714095
0.000734037
0.000751041
0.000764641
0.000774324
0.000779505
0.00077951
0.000774713
0.000765718
0.000753049
0.000737171
0.000718503
0.000697432
0.00067432
0.000649512
0.000623335
0.0005961
0.000568104
0.000539625
0.000510922
0.000482234
0.000453778
0.000425747
0.000398311
0.000371614
0.000345778
0.0003209
0.000297056
0.000274301
0.000252673
0.000232192
0.000212862
0.000194676
0.000177617
0.000161656
0.00014676
0.000132889
0.00012
0.000108044
9.69751e-05
8.67431e-05
7.72994e-05
6.85958e-05
6.05857e-05
5.32242e-05
4.64689e-05
4.02778e-05
3.46176e-05
2.94544e-05
2.47573e-05
2.05003e-05
1.66626e-05
1.32281e-05
1.01875e-05
7.53815e-06
5.28539e-06
3.44109e-06
2.01847e-06
1.01935e-06
5.13889e-07
3.04532e-07
1.74369e-07
9.68919e-08
5.24571e-08
2.77481e-08
1.43611e-08
7.27265e-09
3.59932e-09
1.7367e-09
8.13989e-10
3.68727e-10
1.60333e-10
6.63121e-11
2.57631e-11
9.23991e-12
2.98301e-12
8.34411e-13
1.90194e-13
3.17528e-14
3.16095e-15
1.19608e-16
6.16987e-19
5.76703e-19
1.11798e-16
2.95457e-15
2.96796e-14
1.77776e-13
7.79931e-13
2.78825e-12
8.63666e-12
2.40812e-11
6.19838e-11
1.4987e-10
3.44676e-10
7.60934e-10
1.62364e-09
3.36546e-09
6.8016e-09
1.34355e-08
2.59729e-08
4.91389e-08
9.0864e-08
1.63773e-07
2.86599e-07
4.84786e-07
9.8164e-07
1.99097e-06
3.44581e-06
5.34531e-06
7.67558e-06
1.04239e-05
1.35847e-05
1.71606e-05
2.11621e-05
2.56062e-05
3.0516e-05
3.59192e-05
4.18483e-05
4.83433e-05
5.54376e-05
6.31777e-05
7.16099e-05
8.07831e-05
9.0748e-05
0.000101557
0.000113263
0.00012592
0.000139579
0.00015429
0.0001701
0.000187049
0.000205172
0.000224493
0.000245028
0.000266776
0.000289723
0.000313836
0.00033906
0.000365319
0.00039251
0.000420503
0.000449143
0.000478241
0.000507582
0.000536919
0.000565979
0.00059446