/*--------------------------------*- C++ -*----------------------------------*\
  =========                 |
  \\      /  F ield         | OpenFOAM: The Open Source CFD Toolbox
   \\    /   O peration     | Website:  https://openfoam.org
    \\  /    A nd           | Version:  dev
     \\/     M anipulation  |
\*---------------------------------------------------------------------------*/
FoamFile
{
    version     2.0;
    format      ascii;
    class       surfaceScalarField;
    location    "681";
    object      phi;
}
// * * * * * * * * * * * * * * * * * * * * * * * * * * * * * * * * * * * * * //

dimensions      [0 3 -1 0 0 0 0];

internalField   nonuniform List<scalar> 
179250
(
5.35813e-08
1.02244e-09
1.10767e-07
3.44238e-09
1.71523e-07
6.56241e-09
2.35731e-07
1.05381e-08
3.03175e-07
1.55483e-08
3.73523e-07
2.18024e-08
4.46296e-07
2.95441e-08
5.20848e-07
3.90546e-08
5.96335e-07
5.06552e-08
6.71687e-07
6.47078e-08
7.45589e-07
8.1612e-08
8.16465e-07
1.01796e-07
8.82491e-07
1.25698e-07
9.41642e-07
1.53727e-07
9.91802e-07
1.86207e-07
1.03096e-06
2.23292e-07
1.05749e-06
2.64875e-07
1.07049e-06
3.1055e-07
1.07004e-06
3.59708e-07
1.05715e-06
4.11783e-07
1.03351e-06
4.66545e-07
1.00104e-06
5.24248e-07
9.61232e-07
5.85849e-07
8.71088e-07
1.23204e-06
7.83722e-07
1.28535e-06
7.02189e-07
1.33838e-06
6.27168e-07
1.39361e-06
5.58679e-07
1.45185e-06
4.9647e-07
1.51353e-06
4.40178e-07
1.57891e-06
3.89406e-07
1.6482e-06
3.43755e-07
1.72155e-06
3.02839e-07
1.79915e-06
2.66292e-07
1.88115e-06
2.33766e-07
1.96775e-06
2.04932e-07
2.05913e-06
1.79479e-07
2.15549e-06
1.5711e-07
2.25705e-06
1.37545e-07
2.36403e-06
1.20514e-07
2.47667e-06
1.0576e-07
2.59522e-06
9.30267e-08
2.71997e-06
8.20357e-08
2.85123e-06
7.25445e-08
2.98926e-06
6.43427e-08
3.13435e-06
5.72497e-08
3.28682e-06
5.11105e-08
3.44699e-06
4.57905e-08
3.61521e-06
4.11728e-08
3.79185e-06
3.71551e-08
3.9773e-06
3.36482e-08
4.17198e-06
3.05742e-08
4.37633e-06
2.78654e-08
4.59081e-06
2.54633e-08
4.8159e-06
2.33179e-08
5.05211e-06
2.13866e-08
5.29999e-06
1.96333e-08
5.56008e-06
1.80281e-08
5.833e-06
1.65458e-08
6.11935e-06
1.51656e-08
6.4198e-06
1.38704e-08
6.73502e-06
1.26456e-08
7.06576e-06
1.14792e-08
7.41276e-06
1.03606e-08
7.77681e-06
9.28072e-09
8.15877e-06
8.23122e-09
8.5595e-06
7.20439e-09
8.97992e-06
6.19279e-09
9.42101e-06
5.18904e-09
9.88377e-06
4.18558e-09
1.03693e-05
3.17436e-09
1.08786e-05
2.14659e-09
1.1413e-05
1.09244e-09
1.19737e-05
4.43614e-13
1.25619e-05
-1.05155e-09
1.20919e-05
-2.06765e-09
1.1547e-05
-3.05832e-09
1.10266e-05
-4.03261e-09
1.05297e-05
-4.99851e-09
1.00552e-05
-5.96329e-09
9.60213e-06
-6.93377e-09
9.16945e-06
-7.91655e-09
8.75627e-06
-8.91821e-09
8.36172e-06
-9.94551e-09
7.98496e-06
-1.10056e-08
7.62519e-06
-1.21064e-08
7.28164e-06
-1.32566e-08
6.95358e-06
-1.44664e-08
6.64032e-06
-1.57474e-08
6.34119e-06
-1.71137e-08
6.05556e-06
-1.85819e-08
5.78282e-06
-2.01718e-08
5.5224e-06
-2.19073e-08
5.27374e-06
-2.38167e-08
5.03632e-06
-2.59335e-08
4.80965e-06
-2.82972e-08
4.59324e-06
-3.09537e-08
4.38664e-06
-3.39562e-08
4.18941e-06
-3.73661e-08
4.00115e-06
-4.12534e-08
3.82147e-06
-4.56979e-08
3.64998e-06
-5.07908e-08
3.48634e-06
-5.66356e-08
3.3302e-06
-6.33509e-08
3.18126e-06
-7.10726e-08
3.0392e-06
-7.99578e-08
2.90374e-06
-9.01887e-08
2.77463e-06
-1.01975e-07
2.6516e-06
-1.15557e-07
2.53443e-06
-1.31169e-07
2.42286e-06
-1.49041e-07
2.31663e-06
-1.6941e-07
2.21553e-06
-1.9252e-07
2.11935e-06
-2.18631e-07
2.02788e-06
-2.48014e-07
1.94094e-06
-2.80951e-07
1.85834e-06
-3.17744e-07
1.77994e-06
-3.58709e-07
1.70555e-06
-4.04177e-07
1.63504e-06
-4.54495e-07
1.56825e-06
-5.10019e-07
1.50505e-06
-5.71095e-07
1.44528e-06
-6.3803e-07
1.38875e-06
-7.11016e-07
1.33524e-06
-7.89969e-07
1.28432e-06
-8.74174e-07
1.23525e-06
-9.60716e-07
1.18571e-06
-1.0006e-06
5.85917e-07
-1.03314e-06
5.24323e-07
-1.05684e-06
4.6661e-07
-1.06979e-06
4.1184e-07
-1.07029e-06
3.59758e-07
-1.05733e-06
3.10592e-07
-1.03083e-06
2.6491e-07
-9.91706e-07
2.23321e-07
-9.4157e-07
1.8623e-07
-8.82437e-07
1.53745e-07
-8.16424e-07
1.25712e-07
-7.45559e-07
1.01807e-07
-6.71666e-07
8.16201e-08
-5.9632e-07
6.47139e-08
-5.20838e-07
5.06598e-08
-4.46289e-07
3.9058e-08
-3.73518e-07
2.95466e-08
-3.03172e-07
2.18042e-08
-2.35729e-07
1.55495e-08
-1.71522e-07
1.05389e-08
-1.10767e-07
6.56294e-09
-5.35812e-08
3.44267e-09
1.02254e-09
4.33542e-10
5.889e-10
1.84545e-09
2.03048e-09
4.4667e-09
3.94116e-09
8.5671e-09
6.43769e-09
1.44483e-08
9.66709e-09
2.24407e-08
1.381e-08
3.28972e-08
1.90875e-08
4.61828e-08
2.5769e-08
6.26579e-08
3.41801e-08
8.26544e-08
4.47113e-08
1.06442e-07
5.78247e-08
1.34181e-07
7.40574e-08
1.65862e-07
9.40167e-08
2.01228e-07
1.1836e-07
2.39684e-07
1.47751e-07
2.80204e-07
1.82773e-07
3.21276e-07
2.23802e-07
3.60967e-07
2.70859e-07
3.97163e-07
3.23512e-07
4.27994e-07
3.80952e-07
4.52252e-07
4.42287e-07
4.69582e-07
5.06918e-07
4.80984e-07
5.74447e-07
4.93955e-07
1.21907e-06
4.92458e-07
1.28685e-06
4.82862e-07
1.34797e-06
4.69025e-07
1.40744e-06
4.52906e-07
1.46797e-06
4.35531e-07
1.53091e-06
4.17446e-07
1.597e-06
3.98952e-07
1.66669e-06
3.80226e-07
1.74028e-06
3.61381e-07
1.81799e-06
3.42505e-07
1.90003e-06
3.23681e-07
1.98658e-06
3.04991e-07
2.07782e-06
2.86526e-07
2.17396e-06
2.68381e-07
2.27519e-06
2.50656e-07
2.38175e-06
2.33452e-07
2.49387e-06
2.16866e-07
2.61181e-06
2.00995e-07
2.73584e-06
1.85946e-07
2.86628e-06
1.71786e-07
3.00342e-06
1.58544e-07
3.1476e-06
1.46221e-07
3.29914e-06
1.34795e-07
3.45842e-06
1.24231e-07
3.62577e-06
1.14482e-07
3.80159e-06
1.05499e-07
3.98628e-06
9.72263e-08
4.18025e-06
8.96082e-08
4.38395e-06
8.25896e-08
4.59783e-06
7.61162e-08
4.82237e-06
7.01362e-08
5.05809e-06
6.46e-08
5.30552e-06
5.94611e-08
5.56522e-06
5.46757e-08
5.83778e-06
5.02032e-08
6.12382e-06
4.6006e-08
6.42399e-06
4.20492e-08
6.73898e-06
3.83007e-08
7.06951e-06
3.47308e-08
7.41633e-06
3.13116e-08
7.78023e-06
2.80174e-08
8.16206e-06
2.48236e-08
8.56269e-06
2.17066e-08
8.98304e-06
1.86434e-08
9.42407e-06
1.56108e-08
9.8868e-06
1.2585e-08
1.03723e-05
9.54081e-09
1.08817e-05
6.45042e-09
1.14161e-05
3.28221e-09
1.19769e-05
-1.5649e-12
1.25652e-05
-3.16211e-09
1.20951e-05
-6.2146e-09
1.15501e-05
-9.1928e-09
1.10296e-05
-1.21252e-08
1.05327e-05
-1.50369e-08
1.00582e-05
-1.79507e-08
9.60505e-06
-2.08879e-08
9.17239e-06
-2.38692e-08
8.75925e-06
-2.69151e-08
8.36477e-06
-3.00464e-08
7.98809e-06
-3.32847e-08
7.62843e-06
-3.66523e-08
7.285e-06
-4.01731e-08
6.9571e-06
-4.38727e-08
6.64402e-06
-4.77786e-08
6.3451e-06
-5.19204e-08
6.0597e-06
-5.633e-08
5.78723e-06
-6.10418e-08
5.52711e-06
-6.60931e-08
5.27879e-06
-7.15233e-08
5.04175e-06
-7.73747e-08
4.8155e-06
-8.3692e-08
4.59956e-06
-9.05219e-08
4.39347e-06
-9.79129e-08
4.1968e-06
-1.05914e-07
4.00916e-06
-1.14576e-07
3.83013e-06
-1.23947e-07
3.65935e-06
-1.34073e-07
3.49646e-06
-1.44994e-07
3.34112e-06
-1.56743e-07
3.19301e-06
-1.6934e-07
3.0518e-06
-1.8279e-07
2.91719e-06
-1.97069e-07
2.78891e-06
-2.12128e-07
2.66666e-06
-2.27876e-07
2.55018e-06
-2.44225e-07
2.43921e-06
-2.61088e-07
2.33349e-06
-2.78375e-07
2.23282e-06
-2.95995e-07
2.13697e-06
-3.13861e-07
2.04574e-06
-3.31892e-07
1.95897e-06
-3.5001e-07
1.87646e-06
-3.68146e-07
1.79807e-06
-3.86227e-07
1.72363e-06
-4.04173e-07
1.65298e-06
-4.21874e-07
1.58595e-06
-4.39157e-07
1.52233e-06
-4.55725e-07
1.46184e-06
-4.71039e-07
1.40407e-06
-4.84106e-07
1.3483e-06
-4.93056e-07
1.29327e-06
-4.94275e-07
1.23647e-06
-4.81888e-07
1.17333e-06
-4.70432e-07
5.74461e-07
-4.53011e-07
5.06901e-07
-4.28662e-07
4.42261e-07
-3.97741e-07
3.80919e-07
-3.61459e-07
3.23475e-07
-3.21688e-07
2.70822e-07
-2.80543e-07
2.23765e-07
-2.3996e-07
1.82738e-07
-2.01449e-07
1.47719e-07
-1.66036e-07
1.18332e-07
-1.34317e-07
9.39922e-08
-1.06546e-07
7.40365e-08
-8.27332e-08
5.78071e-08
-6.27161e-08
4.46968e-08
-4.62248e-08
3.41684e-08
-3.29266e-08
2.57598e-08
-2.24604e-08
1.90804e-08
-1.44608e-08
1.38046e-08
-8.57449e-09
9.66319e-09
-4.47056e-09
6.435e-09
-1.84706e-09
3.93945e-09
-4.33934e-10
2.02955e-09
5.88604e-10
1.40935e-10
4.47965e-10
6.28888e-10
1.54252e-09
1.5727e-09
2.99735e-09
3.10233e-09
4.90806e-09
5.37716e-09
7.39226e-09
8.59151e-09
1.05956e-08
1.29808e-08
1.46982e-08
1.88278e-08
1.9922e-08
2.64679e-08
2.65399e-08
3.62932e-08
3.4886e-08
4.87506e-08
4.53672e-08
6.43334e-08
5.84747e-08
8.35561e-08
7.4794e-08
1.06908e-07
9.50082e-08
1.34773e-07
1.19887e-07
1.673e-07
1.50245e-07
2.04247e-07
1.86856e-07
2.44811e-07
2.30295e-07
2.87572e-07
2.80751e-07
3.30647e-07
3.37877e-07
3.72075e-07
4.00859e-07
4.10239e-07
4.68754e-07
4.43614e-07
5.41071e-07
4.83652e-07
1.17903e-06
5.07157e-07
1.26335e-06
5.19552e-07
1.33558e-06
5.23707e-07
1.40329e-06
5.21618e-07
1.47006e-06
5.14742e-07
1.53779e-06
5.04186e-07
1.60756e-06
4.90821e-07
1.68005e-06
4.7534e-07
1.75576e-06
4.58305e-07
1.83503e-06
4.40174e-07
1.91816e-06
4.21317e-07
2.00543e-06
4.02035e-07
2.0971e-06
3.82573e-07
2.19342e-06
3.63125e-07
2.29464e-06
3.43846e-07
2.40103e-06
3.24858e-07
2.51286e-06
3.06258e-07
2.63041e-06
2.88126e-07
2.75398e-06
2.70534e-07
2.88387e-06
2.53546e-07
3.02041e-06
2.37216e-07
3.16392e-06
2.21588e-07
3.31477e-06
2.06693e-07
3.47331e-06
1.92548e-07
3.63992e-06
1.79162e-07
3.81498e-06
1.6653e-07
3.99891e-06
1.54639e-07
4.19214e-06
1.43468e-07
4.39512e-06
1.32988e-07
4.60831e-06
1.23165e-07
4.8322e-06
1.13959e-07
5.0673e-06
1.05329e-07
5.31415e-06
9.72295e-08
5.57332e-06
8.96162e-08
5.84539e-06
8.24437e-08
6.13099e-06
7.56674e-08
6.43077e-06
6.92438e-08
6.74541e-06
6.3131e-08
7.07562e-06
5.72883e-08
7.42217e-06
5.16769e-08
7.78584e-06
4.62588e-08
8.16748e-06
4.09976e-08
8.56795e-06
3.58571e-08
8.98818e-06
3.08012e-08
9.42913e-06
2.57933e-08
9.89181e-06
2.0795e-08
1.03773e-05
1.57653e-08
1.08867e-05
1.06588e-08
1.14212e-05
5.42343e-09
1.19821e-05
-2.64186e-12
1.25706e-05
-5.22535e-09
1.21003e-05
-1.02694e-08
1.15551e-05
-1.51905e-08
1.10345e-05
-2.00355e-08
1.05375e-05
-2.48455e-08
1.0063e-05
-2.96576e-08
9.60986e-06
-3.45062e-08
9.17724e-06
-3.94243e-08
8.76417e-06
-4.4444e-08
8.36979e-06
-4.95976e-08
7.99325e-06
-5.49173e-08
7.63375e-06
-6.04365e-08
7.29052e-06
-6.61895e-08
6.96285e-06
-7.22116e-08
6.65004e-06
-7.85399e-08
6.35142e-06
-8.52125e-08
6.06637e-06
-9.22687e-08
5.79429e-06
-9.97486e-08
5.53459e-06
-1.07693e-07
5.28674e-06
-1.16141e-07
5.0502e-06
-1.25133e-07
4.82449e-06
-1.34706e-07
4.60913e-06
-1.44894e-07
4.40365e-06
-1.55726e-07
4.20764e-06
-1.67228e-07
4.02066e-06
-1.79419e-07
3.84232e-06
-1.92309e-07
3.67224e-06
-2.05902e-07
3.51006e-06
-2.20192e-07
3.35541e-06
-2.35163e-07
3.20798e-06
-2.5079e-07
3.06742e-06
-2.67034e-07
2.93344e-06
-2.83851e-07
2.80573e-06
-3.01185e-07
2.684e-06
-3.18975e-07
2.56797e-06
-3.37152e-07
2.45738e-06
-3.55635e-07
2.35198e-06
-3.74326e-07
2.25151e-06
-3.93099e-07
2.15574e-06
-4.11797e-07
2.06444e-06
-4.30224e-07
1.97739e-06
-4.4814e-07
1.89438e-06
-4.65248e-07
1.81518e-06
-4.81187e-07
1.73957e-06
-4.95517e-07
1.66731e-06
-5.07698e-07
1.59813e-06
-5.17065e-07
1.5317e-06
-5.22791e-07
1.46757e-06
-5.23819e-07
1.4051e-06
-5.18768e-07
1.34325e-06
-5.05749e-07
1.28025e-06
-4.82064e-07
1.21278e-06
-4.42703e-07
1.13396e-06
-4.09417e-07
5.41175e-07
-3.7136e-07
4.68844e-07
-3.3003e-07
4.00931e-07
-2.87044e-07
3.37933e-07
-2.44364e-07
2.80795e-07
-2.03873e-07
2.3033e-07
-1.6699e-07
1.86883e-07
-1.34518e-07
1.50266e-07
-1.06702e-07
1.19903e-07
-8.3391e-08
9.50212e-08
-6.42031e-08
7.48043e-08
-4.86496e-08
5.84829e-08
-3.62161e-08
4.53737e-08
-2.64105e-08
3.48912e-08
-1.8786e-08
2.6544e-08
-1.29514e-08
1.99252e-08
-8.57165e-09
1.47006e-08
-5.36444e-09
1.05974e-08
-3.0948e-09
7.39355e-09
-1.56874e-09
4.90895e-09
-6.2722e-10
2.99793e-09
-1.40524e-10
1.54285e-09
4.48081e-10
5.15231e-11
3.96442e-10
2.26637e-10
1.36741e-09
5.65913e-10
2.65808e-09
1.12262e-09
4.35135e-09
1.96458e-09
6.55031e-09
3.17786e-09
9.38237e-09
4.87144e-09
1.30047e-08
7.18283e-09
1.76106e-08
1.02849e-08
2.34379e-08
1.43935e-08
3.07773e-08
1.97765e-08
3.99843e-08
2.6761e-08
5.14902e-08
3.57392e-08
6.58158e-08
4.71657e-08
8.35817e-08
6.15387e-08
1.05514e-07
7.93518e-08
1.32432e-07
1.00999e-07
1.65208e-07
1.26627e-07
2.04668e-07
1.55952e-07
2.51426e-07
1.88145e-07
3.05684e-07
2.21892e-07
3.67112e-07
2.55676e-07
4.34971e-07
2.88346e-07
5.08401e-07
3.43683e-07
1.12369e-06
3.83303e-07
1.22373e-06
4.10626e-07
1.30825e-06
4.28713e-07
1.3852e-06
4.39772e-07
1.459e-06
4.45409e-07
1.53215e-06
4.46806e-07
1.60616e-06
4.44856e-07
1.682e-06
4.40237e-07
1.76038e-06
4.33472e-07
1.84179e-06
4.24974e-07
1.92666e-06
4.15066e-07
2.01534e-06
4.04013e-07
2.10815e-06
3.92027e-07
2.2054e-06
3.79288e-07
2.30738e-06
3.65947e-07
2.41437e-06
3.52139e-07
2.52667e-06
3.3798e-07
2.64457e-06
3.23581e-07
2.76837e-06
3.09041e-07
2.89841e-06
2.94455e-07
3.03499e-06
2.79914e-07
3.17847e-06
2.65498e-07
3.32919e-06
2.51281e-07
3.48753e-06
2.37331e-07
3.65387e-06
2.23703e-07
3.82861e-06
2.10447e-07
4.01217e-06
1.976e-07
4.20499e-06
1.85194e-07
4.40753e-06
1.73248e-07
4.62025e-06
1.61774e-07
4.84367e-06
1.50778e-07
5.0783e-06
1.40254e-07
5.32468e-06
1.30192e-07
5.58338e-06
1.20575e-07
5.85501e-06
1.11381e-07
6.14019e-06
1.02583e-07
6.43957e-06
9.41514e-08
6.75384e-06
8.60519e-08
7.08372e-06
7.8249e-08
7.42997e-06
7.07055e-08
7.79339e-06
6.33824e-08
8.1748e-06
5.62395e-08
8.57509e-06
4.92352e-08
8.99518e-06
4.2326e-08
9.43603e-06
3.54665e-08
9.89867e-06
2.86077e-08
1.03842e-05
2.16964e-08
1.08936e-05
1.46724e-08
1.14283e-05
7.46668e-09
1.19893e-05
-3.64824e-12
1.25781e-05
-7.1944e-09
1.21075e-05
-1.41373e-08
1.1562e-05
-2.09068e-08
1.10413e-05
-2.75655e-08
1.05442e-05
-3.41676e-08
1.00696e-05
-4.07617e-08
9.61645e-06
-4.73918e-08
9.18387e-06
-5.40991e-08
8.77088e-06
-6.09228e-08
8.37661e-06
-6.79003e-08
8.00022e-06
-7.5068e-08
7.64091e-06
-8.24607e-08
7.29792e-06
-9.01125e-08
6.9705e-06
-9.80558e-08
6.65798e-06
-1.06321e-07
6.35969e-06
-1.14938e-07
6.07499e-06
-1.23931e-07
5.80328e-06
-1.33322e-07
5.54398e-06
-1.4313e-07
5.29654e-06
-1.53369e-07
5.06044e-06
-1.64046e-07
4.83517e-06
-1.75162e-07
4.62025e-06
-1.86714e-07
4.41521e-06
-1.98689e-07
4.21961e-06
-2.11067e-07
4.03304e-06
-2.23822e-07
3.85508e-06
-2.36918e-07
3.68534e-06
-2.50314e-07
3.52345e-06
-2.63958e-07
3.36906e-06
-2.77792e-07
3.22181e-06
-2.91751e-07
3.08138e-06
-3.05763e-07
2.94745e-06
-3.19752e-07
2.81971e-06
-3.33632e-07
2.69788e-06
-3.47318e-07
2.58166e-06
-3.60713e-07
2.47078e-06
-3.73717e-07
2.36498e-06
-3.86218e-07
2.26401e-06
-3.98087e-07
2.16761e-06
-4.09179e-07
2.07553e-06
-4.1932e-07
1.98753e-06
-4.28301e-07
1.90336e-06
-4.35869e-07
1.82275e-06
-4.41706e-07
1.74541e-06
-4.45416e-07
1.67102e-06
-4.46494e-07
1.59921e-06
-4.44288e-07
1.52949e-06
-4.3795e-07
1.46123e-06
-4.2636e-07
1.39351e-06
-4.08008e-07
1.3249e-06
-3.80838e-07
1.25308e-06
-3.42029e-07
1.17397e-06
-2.88493e-07
1.08043e-06
-2.55802e-07
5.08483e-07
-2.21994e-07
4.35036e-07
-1.88226e-07
3.67163e-07
-1.56016e-07
3.05723e-07
-1.26676e-07
2.51456e-07
-1.01037e-07
2.04691e-07
-7.93814e-08
1.65227e-07
-6.1562e-08
1.32447e-07
-4.71843e-08
1.05525e-07
-3.57541e-08
8.3591e-08
-2.6773e-08
6.58231e-08
-1.9786e-08
5.1496e-08
-1.44011e-08
3.99888e-08
-1.02907e-08
3.07808e-08
-7.1873e-09
2.34405e-08
-4.87475e-09
1.76126e-08
-3.18024e-09
1.30061e-08
-1.96622e-09
9.3834e-09
-1.12369e-09
6.55101e-09
-5.66542e-10
4.3518e-09
-2.26951e-10
2.65833e-09
-5.16207e-11
1.36752e-09
3.9646e-10
4.67951e-11
3.49647e-10
2.08402e-10
1.2058e-09
5.21686e-10
2.34479e-09
1.03186e-09
3.84117e-09
1.79482e-09
5.78736e-09
2.87924e-09
8.29794e-09
4.36921e-09
1.15147e-08
6.36706e-09
1.56128e-08
8.99681e-09
2.08081e-08
1.24079e-08
2.73663e-08
1.67792e-08
3.5613e-08
2.23234e-08
4.5946e-08
2.92903e-08
5.88488e-08
3.79687e-08
7.49034e-08
4.86817e-08
9.48007e-08
6.17727e-08
1.19341e-07
7.75686e-08
1.49412e-07
9.63105e-08
1.85926e-07
1.18048e-07
2.29689e-07
1.42521e-07
2.81211e-07
1.69107e-07
3.40526e-07
1.96902e-07
4.07175e-07
2.24817e-07
4.80487e-07
2.71379e-07
1.07713e-06
3.085e-07
1.18661e-06
3.37846e-07
1.27891e-06
3.60763e-07
1.36229e-06
3.7834e-07
1.44142e-06
3.91433e-07
1.51906e-06
4.00716e-07
1.59687e-06
4.06728e-07
1.67599e-06
4.0991e-07
1.7572e-06
4.10624e-07
1.84108e-06
4.09177e-07
1.92811e-06
4.05834e-07
2.01868e-06
4.00823e-07
2.11317e-06
3.94348e-07
2.21188e-06
3.8659e-07
2.31514e-06
3.77714e-07
2.42325e-06
3.67871e-07
2.53651e-06
3.57202e-07
2.65524e-06
3.45837e-07
2.77974e-06
3.33898e-07
2.91035e-06
3.215e-07
3.04739e-06
3.08752e-07
3.19121e-06
2.95754e-07
3.34219e-06
2.82601e-07
3.50068e-06
2.69381e-07
3.66709e-06
2.56172e-07
3.84182e-06
2.43046e-07
4.0253e-06
2.30067e-07
4.21797e-06
2.17288e-07
4.42031e-06
2.04755e-07
4.63279e-06
1.92504e-07
4.85592e-06
1.80563e-07
5.09024e-06
1.68953e-07
5.33629e-06
1.57683e-07
5.59465e-06
1.46759e-07
5.86594e-06
1.36175e-07
6.15077e-06
1.25923e-07
6.44982e-06
1.15987e-07
6.76377e-06
1.06344e-07
7.09336e-06
9.69696e-08
7.43935e-06
8.78332e-08
7.80252e-06
7.89007e-08
8.18374e-06
7.01344e-08
8.58386e-06
6.14931e-08
9.00382e-06
5.29315e-08
9.4446e-06
4.44001e-08
9.9072e-06
3.58443e-08
1.03927e-05
2.72026e-08
1.09023e-05
1.84048e-08
1.14371e-05
9.36857e-09
1.19983e-05
-5.1526e-12
1.25875e-05
-9.02811e-09
1.21165e-05
-1.77351e-08
1.15708e-05
-2.62154e-08
1.10498e-05
-3.45435e-08
1.05525e-05
-4.2783e-08
1.00778e-05
-5.09898e-08
9.62466e-06
-5.92138e-08
9.19209e-06
-6.75e-08
8.77917e-06
-7.58897e-08
8.385e-06
-8.44208e-08
8.00875e-06
-9.3128e-08
7.64962e-06
-1.02043e-07
7.30683e-06
-1.11194e-07
6.97966e-06
-1.20607e-07
6.6674e-06
-1.30302e-07
6.36938e-06
-1.40296e-07
6.08498e-06
-1.50602e-07
5.81358e-06
-1.61226e-07
5.55461e-06
-1.72171e-07
5.30749e-06
-1.83429e-07
5.0717e-06
-1.9499e-07
4.84673e-06
-2.06835e-07
4.63209e-06
-2.18937e-07
4.42731e-06
-2.31263e-07
4.23194e-06
-2.43771e-07
4.04554e-06
-2.56412e-07
3.86772e-06
-2.69131e-07
3.69806e-06
-2.81862e-07
3.53618e-06
-2.94536e-07
3.38173e-06
-3.07075e-07
3.23435e-06
-3.19396e-07
3.0937e-06
-3.31409e-07
2.95946e-06
-3.43019e-07
2.83132e-06
-3.54124e-07
2.70898e-06
-3.64618e-07
2.59215e-06
-3.74387e-07
2.48055e-06
-3.83307e-07
2.3739e-06
-3.91249e-07
2.27195e-06
-3.98071e-07
2.17443e-06
-4.03617e-07
2.08108e-06
-4.07716e-07
1.99163e-06
-4.10176e-07
1.90582e-06
-4.10781e-07
1.82335e-06
-4.0928e-07
1.74391e-06
-4.05385e-07
1.66713e-06
-3.9875e-07
1.59258e-06
-3.88961e-07
1.5197e-06
-3.75509e-07
1.44778e-06
-3.57765e-07
1.37576e-06
-3.34931e-07
1.30207e-06
-3.06001e-07
1.22415e-06
-2.69752e-07
1.13772e-06
-2.24682e-07
1.03536e-06
-1.96792e-07
4.80593e-07
-1.69022e-07
4.07266e-07
-1.42458e-07
3.406e-07
-1.18004e-07
2.81269e-07
-9.62816e-08
2.29734e-07
-7.75508e-08
1.8596e-07
-6.17628e-08
1.49438e-07
-4.86768e-08
1.19361e-07
-3.79669e-08
9.48155e-08
-2.92904e-08
7.49145e-08
-2.23243e-08
5.8857e-08
-1.67804e-08
4.59521e-08
-1.24091e-08
3.56174e-08
-8.99787e-09
2.73696e-08
-6.36789e-09
2.08105e-08
-4.36978e-09
1.56145e-08
-2.87959e-09
1.15159e-08
-1.79498e-09
8.29879e-09
-1.03191e-09
5.78794e-09
-5.21658e-10
3.84155e-09
-2.08353e-10
2.34503e-09
-4.67663e-11
1.20593e-09
3.49694e-10
2.77251e-11
3.21922e-10
1.22771e-10
1.11075e-09
3.07078e-10
2.16048e-09
6.08541e-10
3.5397e-09
1.06221e-09
5.33369e-09
1.71196e-09
7.64819e-09
2.6125e-09
1.06142e-08
3.83182e-09
1.43935e-08
5.45404e-09
1.91859e-08
7.58276e-09
2.52376e-08
1.03448e-08
3.28509e-08
1.38945e-08
4.23964e-08
1.84171e-08
5.43261e-08
2.41328e-08
6.91877e-08
3.12961e-08
8.76374e-08
4.0191e-08
1.10446e-07
5.11125e-08
1.38491e-07
6.43287e-08
1.7271e-07
8.00129e-08
2.14004e-07
9.81528e-08
2.63071e-07
1.18475e-07
3.20204e-07
1.40448e-07
3.85202e-07
1.63441e-07
4.57493e-07
2.06109e-07
1.03446e-06
2.42202e-07
1.15051e-06
2.72288e-07
1.24882e-06
2.97226e-07
1.33735e-06
3.17744e-07
1.42091e-06
3.3443e-07
1.50237e-06
3.4776e-07
1.58354e-06
3.58129e-07
1.66562e-06
3.65865e-07
1.74946e-06
3.71249e-07
1.83569e-06
3.74523e-07
1.92483e-06
3.75897e-07
2.01731e-06
3.75558e-07
2.1135e-06
3.7367e-07
2.21377e-06
3.70381e-07
2.31843e-06
3.65825e-07
2.4278e-06
3.60125e-07
2.54221e-06
3.53395e-07
2.66197e-06
3.45741e-07
2.78739e-06
3.37264e-07
2.91882e-06
3.28059e-07
3.05659e-06
3.18219e-07
3.20106e-06
3.07831e-07
3.35257e-06
2.96981e-07
3.51153e-06
2.85752e-07
3.67832e-06
2.74221e-07
3.85335e-06
2.62464e-07
4.03705e-06
2.50552e-07
4.22988e-06
2.3855e-07
4.43231e-06
2.26518e-07
4.64482e-06
2.14512e-07
4.86793e-06
2.02578e-07
5.10217e-06
1.90757e-07
5.34811e-06
1.79084e-07
5.60633e-06
1.67583e-07
5.87744e-06
1.56272e-07
6.16208e-06
1.45162e-07
6.46093e-06
1.34255e-07
6.77468e-06
1.23547e-07
7.10407e-06
1.13027e-07
7.44987e-06
1.02676e-07
7.81288e-06
9.24708e-08
8.19394e-06
8.2381e-08
8.59395e-06
7.23707e-08
9.01383e-06
6.23976e-08
9.45457e-06
5.24131e-08
9.91719e-06
4.23612e-08
1.04028e-05
3.21769e-08
1.09125e-05
2.17843e-08
1.14474e-05
1.1093e-08
1.2009e-05
-6.93428e-12
1.25986e-05
-1.06915e-08
1.21272e-05
-2.0994e-08
1.15811e-05
-3.10134e-08
1.10598e-05
-4.08316e-08
1.05623e-05
-5.05176e-08
1.00875e-05
-6.01307e-08
9.63427e-06
-6.97224e-08
9.20168e-06
-7.93375e-08
8.78878e-06
-8.9015e-08
8.39468e-06
-9.87888e-08
8.01853e-06
-1.08688e-07
7.65952e-06
-1.18735e-07
7.31688e-06
-1.28949e-07
6.98987e-06
-1.39343e-07
6.67779e-06
-1.49923e-07
6.37996e-06
-1.60692e-07
6.09575e-06
-1.71643e-07
5.82454e-06
-1.82765e-07
5.56573e-06
-1.94039e-07
5.31876e-06
-2.05441e-07
5.0831e-06
-2.16939e-07
4.85823e-06
-2.28495e-07
4.64365e-06
-2.40065e-07
4.43888e-06
-2.51601e-07
4.24347e-06
-2.63048e-07
4.05699e-06
-2.74347e-07
3.87902e-06
-2.85436e-07
3.70915e-06
-2.96247e-07
3.547e-06
-3.06712e-07
3.3922e-06
-3.16757e-07
3.2444e-06
-3.26306e-07
3.10325e-06
-3.35283e-07
2.96844e-06
-3.43606e-07
2.83965e-06
-3.5119e-07
2.71657e-06
-3.57948e-07
2.59891e-06
-3.63787e-07
2.48639e-06
-3.68608e-07
2.37872e-06
-3.72305e-07
2.27565e-06
-3.74763e-07
2.17689e-06
-3.75856e-07
2.08217e-06
-3.75444e-07
1.99122e-06
-3.73372e-07
1.90375e-06
-3.69466e-07
1.81944e-06
-3.63527e-07
1.73797e-06
-3.55326e-07
1.65893e-06
-3.44601e-07
1.58185e-06
-3.31042e-07
1.50615e-06
-3.1428e-07
1.43102e-06
-2.93869e-07
1.35535e-06
-2.69263e-07
1.27746e-06
-2.39789e-07
1.19468e-06
-2.04666e-07
1.1026e-06
-1.63409e-07
9.94102e-07
-1.40403e-07
4.57586e-07
-1.18421e-07
3.85284e-07
-9.80932e-08
3.20272e-07
-7.99518e-08
2.63127e-07
-6.42693e-08
2.14051e-07
-5.10571e-08
1.72748e-07
-4.01412e-08
1.38523e-07
-3.12528e-08
1.10472e-07
-2.4096e-08
8.76588e-08
-1.83867e-08
6.92052e-08
-1.38699e-08
5.43402e-08
-1.03254e-08
4.24077e-08
-7.56783e-09
3.28598e-08
-5.44285e-09
2.52446e-08
-3.8237e-09
1.91914e-08
-2.60682e-09
1.43976e-08
-1.70818e-09
1.06173e-08
-1.05985e-09
7.65046e-09
-6.07196e-10
5.33529e-09
-3.06419e-10
3.54077e-09
-1.22528e-10
2.16114e-09
-2.76804e-11
1.11109e-09
3.22013e-10
2.27665e-11
2.99155e-10
1.01231e-10
1.03229e-09
2.53492e-10
2.00822e-09
5.0213e-10
3.29107e-09
8.75313e-10
4.9605e-09
1.40803e-09
7.11547e-09
2.14359e-09
9.87861e-09
3.13534e-09
1.34017e-08
4.44883e-09
1.78724e-08
6.16415e-09
2.35223e-08
8.37877e-09
3.06363e-08
1.12105e-08
3.95646e-08
1.48009e-08
5.07358e-08
1.93175e-08
6.46711e-08
2.4956e-08
8.19989e-08
3.19371e-08
1.03465e-07
4.04981e-08
1.2993e-07
5.08689e-08
1.62339e-07
6.32287e-08
2.01645e-07
7.76417e-08
2.48658e-07
9.39906e-08
3.03855e-07
1.11957e-07
3.67236e-07
1.31058e-07
4.38393e-07
1.66704e-07
9.98815e-07
1.98125e-07
1.11909e-06
2.25531e-07
1.22142e-06
2.49331e-07
1.31355e-06
2.69915e-07
1.40032e-06
2.87603e-07
1.48468e-06
3.02661e-07
1.56849e-06
3.15313e-07
1.65297e-06
3.25752e-07
1.73902e-06
3.34145e-07
1.8273e-06
3.40645e-07
1.91833e-06
3.45384e-07
2.01257e-06
3.48487e-07
2.1104e-06
3.50067e-07
2.21219e-06
3.50227e-07
2.31827e-06
3.49066e-07
2.42896e-06
3.46676e-07
2.5446e-06
3.43146e-07
2.6655e-06
3.3856e-07
2.79198e-06
3.33001e-07
2.92438e-06
3.26548e-07
3.06305e-06
3.19281e-07
3.20832e-06
3.11277e-07
3.36058e-06
3.02612e-07
3.52019e-06
2.93361e-07
3.68757e-06
2.83596e-07
3.86311e-06
2.73389e-07
4.04726e-06
2.62809e-07
4.24046e-06
2.51922e-07
4.44319e-06
2.40791e-07
4.65595e-06
2.29474e-07
4.87924e-06
2.18026e-07
5.11362e-06
2.06495e-07
5.35964e-06
1.94925e-07
5.6179e-06
1.83353e-07
5.88901e-06
1.71808e-07
6.17363e-06
1.60314e-07
6.47242e-06
1.48888e-07
6.78611e-06
1.37538e-07
7.11542e-06
1.26265e-07
7.46114e-06
1.15063e-07
7.82408e-06
1.03919e-07
8.20509e-06
9.28113e-08
8.60506e-06
8.17124e-08
9.02493e-06
7.05857e-08
9.4657e-06
5.93865e-08
9.92838e-06
4.8061e-08
1.04141e-05
3.65448e-08
1.0924e-05
2.47604e-08
1.14592e-05
1.26141e-08
1.20212e-05
-8.86174e-12
1.26112e-05
-1.21596e-08
1.21394e-05
-2.38651e-08
1.15928e-05
-3.52288e-08
1.10712e-05
-4.63357e-08
1.05734e-05
-5.72563e-08
1.00984e-05
-6.805e-08
9.64507e-06
-7.87663e-08
9.2124e-06
-8.9447e-08
8.79946e-06
-1.00126e-07
8.40536e-06
-1.10832e-07
8.02923e-06
-1.21584e-07
7.67027e-06
-1.32399e-07
7.32769e-06
-1.43283e-07
7.00075e-06
-1.54239e-07
6.68875e-06
-1.65263e-07
6.39099e-06
-1.76344e-07
6.10683e-06
-1.87465e-07
5.83566e-06
-1.98603e-07
5.57686e-06
-2.09729e-07
5.32989e-06
-2.20808e-07
5.09418e-06
-2.31801e-07
4.86922e-06
-2.42663e-07
4.65451e-06
-2.53345e-07
4.44956e-06
-2.63794e-07
4.25392e-06
-2.73955e-07
4.06715e-06
-2.83766e-07
3.88883e-06
-2.93169e-07
3.71855e-06
-3.02098e-07
3.55592e-06
-3.10488e-07
3.40059e-06
-3.18273e-07
3.25218e-06
-3.25386e-07
3.11037e-06
-3.31757e-07
2.97481e-06
-3.37317e-07
2.84521e-06
-3.41995e-07
2.72124e-06
-3.45716e-07
2.60263e-06
-3.48408e-07
2.48908e-06
-3.49991e-07
2.38031e-06
-3.50385e-07
2.27604e-06
-3.49505e-07
2.17601e-06
-3.4726e-07
2.07993e-06
-3.43553e-07
1.98751e-06
-3.38281e-07
1.89848e-06
-3.31328e-07
1.81249e-06
-3.2257e-07
1.72921e-06
-3.11867e-07
1.64822e-06
-2.99062e-07
1.56905e-06
-2.83976e-07
1.49106e-06
-2.66402e-07
1.41344e-06
-2.46094e-07
1.33504e-06
-2.22753e-07
1.25412e-06
-1.96026e-07
1.16795e-06
-1.65548e-07
1.07212e-06
-1.31147e-07
9.59701e-07
-1.12043e-07
4.38483e-07
-9.40719e-08
3.67313e-07
-7.77174e-08
3.03918e-07
-6.32981e-08
2.48708e-07
-5.09312e-08
2.01684e-07
-4.05531e-08
1.6237e-07
-3.19847e-08
1.29954e-07
-2.49963e-08
1.03484e-07
-1.93511e-08
8.20136e-08
-1.48282e-08
6.46823e-08
-1.12324e-08
5.07444e-08
-8.3959e-09
3.95712e-08
-6.17728e-09
3.06412e-08
-4.45863e-09
2.3526e-08
-3.14245e-09
1.78752e-08
-2.14856e-09
1.34037e-08
-1.41135e-09
9.88007e-09
-8.77398e-10
7.11651e-09
-5.03327e-10
4.96122e-09
-2.54088e-10
3.29154e-09
-1.01459e-10
2.00851e-09
-2.28126e-11
1.03244e-09
2.99201e-10
1.66267e-11
2.82528e-10
7.38307e-11
9.75086e-10
1.8489e-10
1.89716e-09
3.66564e-10
3.10939e-09
6.39883e-10
4.68718e-09
1.03114e-09
6.72421e-09
1.5731e-09
9.33664e-09
2.30647e-09
1.26684e-08
3.28161e-09
1.68973e-08
4.56066e-09
2.22432e-08
6.21991e-09
2.8977e-08
8.3526e-09
3.74319e-08
1.10718e-08
4.80165e-08
1.45135e-08
6.12294e-08
1.88383e-08
7.76741e-08
2.42319e-08
9.80714e-08
3.08993e-08
1.23262e-07
3.90502e-08
1.54188e-07
4.88676e-08
1.91827e-07
6.04579e-08
2.37068e-07
7.37919e-08
2.90521e-07
8.86726e-08
3.52356e-07
1.04772e-07
4.22293e-07
1.35924e-07
9.67663e-07
1.64056e-07
1.09096e-06
1.89152e-07
1.19632e-06
2.11485e-07
1.29121e-06
2.31326e-07
1.38048e-06
2.48894e-07
1.46711e-06
2.64363e-07
1.55302e-06
2.77876e-07
1.63946e-06
2.89554e-07
1.72734e-06
2.99501e-07
1.81735e-06
3.07813e-07
1.91002e-06
3.14577e-07
2.00581e-06
3.19873e-07
2.10511e-06
3.23775e-07
2.20829e-06
3.26357e-07
2.31569e-06
3.27683e-07
2.42764e-06
3.2782e-07
2.54446e-06
3.2683e-07
2.66649e-06
3.24773e-07
2.79404e-06
3.21709e-07
2.92745e-06
3.17696e-07
3.06706e-06
3.12794e-07
3.21322e-06
3.0706e-07
3.36631e-06
3.00552e-07
3.5267e-06
2.93329e-07
3.69479e-06
2.85451e-07
3.87099e-06
2.76975e-07
4.05574e-06
2.67961e-07
4.24948e-06
2.58467e-07
4.45269e-06
2.48551e-07
4.66587e-06
2.38266e-07
4.88953e-06
2.27669e-07
5.12422e-06
2.16807e-07
5.3705e-06
2.0573e-07
5.62897e-06
1.94478e-07
5.90026e-06
1.8309e-07
6.18501e-06
1.71597e-07
6.48392e-06
1.60024e-07
6.79768e-06
1.48392e-07
7.12705e-06
1.3671e-07
7.47282e-06
1.24984e-07
7.8358e-06
1.13209e-07
8.21686e-06
1.01374e-07
8.61689e-06
8.94593e-08
9.03685e-06
7.74349e-08
9.47772e-06
6.52626e-08
9.94056e-06
5.28932e-08
1.04265e-05
4.02656e-08
1.09366e-05
2.73045e-08
1.14722e-05
1.39172e-08
1.20346e-05
-1.0882e-11
1.26251e-05
-1.34179e-08
1.21528e-05
-2.63205e-08
1.16057e-05
-3.88219e-08
1.10837e-05
-5.10063e-08
1.05856e-05
-6.29424e-08
1.01104e-05
-7.46867e-08
9.65681e-06
-8.6285e-08
9.224e-06
-9.77738e-08
8.81095e-06
-1.09181e-07
8.41677e-06
-1.20528e-07
8.04058e-06
-1.31827e-07
7.68157e-06
-1.43084e-07
7.33895e-06
-1.54298e-07
7.01197e-06
-1.65463e-07
6.69991e-06
-1.76565e-07
6.40209e-06
-1.87584e-07
6.11785e-06
-1.98495e-07
5.84657e-06
-2.09268e-07
5.58764e-06
-2.19868e-07
5.34049e-06
-2.30256e-07
5.10457e-06
-2.40389e-07
4.87935e-06
-2.50221e-07
4.66434e-06
-2.59706e-07
4.45905e-06
-2.68792e-07
4.26301e-06
-2.77429e-07
4.07579e-06
-2.85564e-07
3.89696e-06
-2.93147e-07
3.72613e-06
-3.00124e-07
3.5629e-06
-3.06443e-07
3.40691e-06
-3.12052e-07
3.25779e-06
-3.16899e-07
3.11521e-06
-3.20932e-07
2.97885e-06
-3.241e-07
2.84837e-06
-3.26349e-07
2.72349e-06
-3.27628e-07
2.60391e-06
-3.27881e-07
2.48933e-06
-3.27056e-07
2.37948e-06
-3.25093e-07
2.27408e-06
-3.21935e-07
2.17285e-06
-3.17519e-07
2.07551e-06
-3.1178e-07
1.98178e-06
-3.04648e-07
1.89134e-06
-2.96049e-07
1.80389e-06
-2.85903e-07
1.71906e-06
-2.74122e-07
1.63644e-06
-2.60606e-07
1.55553e-06
-2.45244e-07
1.4757e-06
-2.27901e-07
1.3961e-06
-2.08413e-07
1.31556e-06
-1.86576e-07
1.23228e-06
-1.62139e-07
1.14351e-06
-1.34859e-07
1.04484e-06
-1.04776e-07
9.29618e-07
-8.86671e-08
4.22374e-07
-7.37798e-08
3.52425e-07
-6.04411e-08
2.90579e-07
-4.88482e-08
2.37115e-07
-3.90299e-08
1.91866e-07
-3.08794e-08
1.5422e-07
-2.42133e-08
1.23288e-07
-1.88216e-08
9.80923e-08
-1.4499e-08
7.76909e-08
-1.10596e-08
6.12429e-08
-8.34253e-09
4.80273e-08
-6.21184e-09
3.74405e-08
-4.55436e-09
2.89837e-08
-3.27683e-09
2.22484e-08
-2.30296e-09
1.69013e-08
-1.57062e-09
1.26714e-08
-1.02947e-09
9.33891e-09
-6.38825e-10
6.72587e-09
-3.65953e-10
4.68834e-09
-1.84584e-10
3.11017e-09
-7.37128e-11
1.89764e-09
-1.66028e-11
9.75329e-10
2.82598e-10
1.37421e-11
2.68786e-10
6.10939e-11
9.27734e-10
1.53057e-10
1.8052e-09
3.03459e-10
2.95899e-09
5.29627e-10
4.46102e-09
8.53193e-10
6.40065e-09
1.30108e-09
8.88875e-09
1.90669e-09
1.20627e-08
2.71131e-09
1.60927e-08
3.76582e-09