/*--------------------------------*- C++ -*----------------------------------*\
  =========                 |
  \\      /  F ield         | OpenFOAM: The Open Source CFD Toolbox
   \\    /   O peration     | Website:  https://openfoam.org
    \\  /    A nd           | Version:  dev
     \\/     M anipulation  |
\*---------------------------------------------------------------------------*/
FoamFile
{
    version     2.0;
    format      ascii;
    class       volVectorField;
    location    "681";
    object      U;
}
// * * * * * * * * * * * * * * * * * * * * * * * * * * * * * * * * * * * * * //

dimensions      [0 1 -1 0 0 0 0];

internalField   nonuniform List<vector> 
90000
(
(0 0.00105847 0.0119195)
(0 0.00330257 0.0359792)
(0 0.00567565 0.0614217)
(0 0.00818004 0.0882044)
(0 0.0108179 0.116259)
(0 0.0135804 0.14549)
(0 0.0164509 0.175768)
(0 0.0194066 0.206929)
(0 0.0224177 0.238767)
(0 0.025446 0.271033)
(0 0.0284437 0.303419)
(0 0.0313529 0.335553)
(0 0.0341053 0.366982)
(0 0.0366233 0.397148)
(0 0.038823 0.425376)
(0 0.0406197 0.450873)
(0 0.0419369 0.472806)
(0 0.042719 0.490476)
(0 0.0429461 0.503577)
(0 0.0426443 0.512374)
(0 0.0418838 0.517646)
(0 0.0407484 0.520402)
(0 0.0392529 0.521564)
(0 0.036616 0.521821)
(0 0.0330202 0.520655)
(0 0.0296109 0.519048)
(0 0.026482 0.517298)
(0 0.0236208 0.515527)
(0 0.0210149 0.513795)
(0 0.0186519 0.512135)
(0 0.0165171 0.510569)
(0 0.0145947 0.509108)
(0 0.0128691 0.507761)
(0 0.0113253 0.506534)
(0 0.00994895 0.50543)
(0 0.00872654 0.504447)
(0 0.00764528 0.503585)
(0 0.00669307 0.502841)
(0 0.00585841 0.502209)
(0 0.00513027 0.501683)
(0 0.00449728 0.501257)
(0 0.00394721 0.500924)
(0 0.00347968 0.500681)
(0 0.00307402 0.500503)
(0 0.00272253 0.500372)
(0 0.00241863 0.500275)
(0 0.00215582 0.500204)
(0 0.00192825 0.500151)
(0 0.0017309 0.500111)
(0 0.0015594 0.500082)
(0 0.00140996 0.500061)
(0 0.00127924 0.500045)
(0 0.00116436 0.500033)
(0 0.0010628 0.500025)
(0 0.000972403 0.500019)
(0 0.000891336 0.500015)
(0 0.000818035 0.500012)
(0 0.00075119 0.50001)
(0 0.000689709 0.500009)
(0 0.000632684 0.500008)
(0 0.000579363 0.500007)
(0 0.00052912 0.500007)
(0 0.00048143 0.500007)
(0 0.000435845 0.500006)
(0 0.000391977 0.500006)
(0 0.00034948 0.500006)
(0 0.000308037 0.500006)
(0 0.000267347 0.500006)
(0 0.000227115 0.500005)
(0 0.000187047 0.500005)
(0 0.00014683 0.500005)
(0 0.000106131 0.500005)
(0 6.45874e-05 0.500005)
(0 2.17926e-05 0.500005)
(0 -2.09479e-05 0.500005)
(0 -6.22083e-05 0.500005)
(0 -0.000102262 0.500005)
(0 -0.000141487 0.500005)
(0 -0.000180221 0.500005)
(0 -0.000218768 0.500005)
(0 -0.000257406 0.500005)
(0 -0.000296402 0.500006)
(0 -0.000336018 0.500006)
(0 -0.000376519 0.500006)
(0 -0.00041818 0.500006)
(0 -0.000461301 0.500006)
(0 -0.00050621 0.500007)
(0 -0.00055328 0.500007)
(0 -0.000602943 0.500007)
(0 -0.000655709 0.500008)
(0 -0.000712181 0.500009)
(0 -0.000773084 0.500011)
(0 -0.000839284 0.500013)
(0 -0.000911813 0.500016)
(0 -0.0009919 0.50002)
(0 -0.00108099 0.500027)
(0 -0.00118079 0.500035)
(0 -0.00129327 0.500047)
(0 -0.0014207 0.500063)
(0 -0.00156571 0.500084)
(0 -0.00173126 0.500113)
(0 -0.00192076 0.500151)
(0 -0.00213809 0.500201)
(0 -0.00238766 0.500268)
(0 -0.00267463 0.500358)
(0 -0.00300476 0.500479)
(0 -0.00338396 0.50064)
(0 -0.00381836 0.500858)
(0 -0.00432468 0.501154)
(0 -0.00490682 0.501535)
(0 -0.00557337 0.502006)
(0 -0.00633466 0.502575)
(0 -0.00720055 0.503245)
(0 -0.00818109 0.504023)
(0 -0.00928681 0.504912)
(0 -0.0105288 0.505914)
(0 -0.0119188 0.50703)
(0 -0.0134689 0.508259)
(0 -0.0151923 0.509598)
(0 -0.0171025 0.511042)
(0 -0.0192135 0.512581)
(0 -0.0215393 0.514204)
(0 -0.0240925 0.515888)
(0 -0.0268831 0.517603)
(0 -0.0299208 0.519288)
(0 -0.0332136 0.520825)
(0 -0.0366711 0.521926)
(0 -0.0392351 0.521678)
(0 -0.0407304 0.52052)
(0 -0.0418697 0.51777)
(0 -0.0426332 0.512506)
(0 -0.0429371 0.503716)
(0 -0.0427118 0.490621)
(0 -0.0419313 0.472953)
(0 -0.0406154 0.451018)
(0 -0.0388197 0.425517)
(0 -0.0366208 0.397282)
(0 -0.0341034 0.367108)
(0 -0.0313515 0.335669)
(0 -0.0284427 0.303524)
(0 -0.0254453 0.271128)
(0 -0.0224172 0.238851)
(0 -0.0194063 0.207002)
(0 -0.0164507 0.17583)
(0 -0.0135802 0.145542)
(0 -0.0108178 0.116301)
(0 -0.00817999 0.088236)
(0 -0.00567563 0.0614437)
(0 -0.00330256 0.0359922)
(0 -0.00105846 0.0119238)
(0 2.87414e-06 0.00666343)
(0 3.76424e-05 0.0205422)
(0 0.000115564 0.0357469)
(0 0.000248454 0.0523949)
(0 0.000446844 0.0706113)
(0 0.000723068 0.0905258)
(0 0.0010909 0.11227)
(0 0.0015649 0.135973)
(0 0.00215976 0.161747)
(0 0.0028896 0.189679)
(0 0.00376676 0.219808)
(0 0.00480031 0.252094)
(0 0.00599385 0.286374)
(0 0.00734282 0.322306)
(0 0.00883104 0.359286)
(0 0.0104268 0.396369)
(0 0.0120793 0.432211)
(0 0.0137173 0.46514)
(0 0.0152545 0.493439)
(0 0.0166042 0.515834)
(0 0.0177005 0.531923)
(0 0.0185192 0.542214)
(0 0.019095 0.547776)
(0 0.0196573 0.550689)
(0 0.0197892 0.547854)
(0 0.0195352 0.542924)
(0 0.0190514 0.537626)
(0 0.0184423 0.532607)
(0 0.0177665 0.528091)
(0 0.017054 0.524129)
(0 0.0163206 0.5207)
(0 0.015575 0.517753)
(0 0.0148227 0.515228)
(0 0.0140675 0.513068)
(0 0.0133128 0.511219)
(0 0.0125618 0.509632)
(0 0.0118179 0.508268)
(0 0.0110849 0.507091)
(0 0.0103668 0.506071)
(0 0.00966757 0.505185)
(0 0.00899118 0.504414)
(0 0.00834145 0.503743)
(0 0.00772286 0.503162)
(0 0.0071388 0.502664)
(0 0.00659114 0.50224)
(0 0.00608044 0.501881)
(0 0.0056062 0.501578)
(0 0.00516722 0.501325)
(0 0.00476184 0.501113)
(0 0.0043881 0.500936)
(0 0.00404386 0.50079)
(0 0.0037269 0.500669)
(0 0.00343499 0.500569)
(0 0.00316593 0.500486)
(0 0.0029176 0.500418)
(0 0.00268796 0.500362)
(0 0.0024751 0.500315)
(0 0.00227719 0.500277)
(0 0.00209257 0.500245)
(0 0.00191967 0.500218)
(0 0.00175703 0.500195)
(0 0.00160333 0.500176)
(0 0.00145732 0.50016)
(0 0.00131787 0.500146)
(0 0.00118391 0.500135)
(0 0.00105443 0.500125)
(0 0.000928481 0.500116)
(0 0.000805127 0.500109)
(0 0.000683453 0.500103)
(0 0.000562526 0.500099)
(0 0.000441374 0.500095)
(0 0.000318944 0.500092)
(0 0.000194069 0.50009)
(0 6.54096e-05 0.500089)
(0 -6.30628e-05 0.500089)
(0 -0.000187009 0.50009)
(0 -0.000307359 0.500092)
(0 -0.000425334 0.500094)
(0 -0.000541994 0.500098)
(0 -0.000658287 0.500102)
(0 -0.000775091 0.500108)
(0 -0.000893241 0.500114)
(0 -0.00101355 0.500122)
(0 -0.00113686 0.500131)
(0 -0.00126398 0.500141)
(0 -0.00139581 0.500154)
(0 -0.00153327 0.500168)
(0 -0.00167734 0.500185)
(0 -0.00182907 0.500205)
(0 -0.00198962 0.500228)
(0 -0.00216019 0.500256)
(0 -0.00234213 0.500289)
(0 -0.00253686 0.500328)
(0 -0.00274591 0.500375)
(0 -0.00297092 0.500431)
(0 -0.00321363 0.500499)
(0 -0.00347587 0.500581)
(0 -0.00375955 0.50068)
(0 -0.00406663 0.500798)
(0 -0.00439911 0.50094)
(0 -0.00475897 0.50111)
(0 -0.00514811 0.501313)
(0 -0.0055683 0.501554)
(0 -0.00602103 0.50184)
(0 -0.00650742 0.502177)
(0 -0.00702799 0.502573)
(0 -0.00758242 0.503036)
(0 -0.0081693 0.503573)
(0 -0.00878589 0.504192)
(0 -0.00942839 0.5049)
(0 -0.0100932 0.505709)
(0 -0.0107768 0.506634)
(0 -0.0114756 0.507695)
(0 -0.0121861 0.508917)
(0 -0.0129047 0.510327)
(0 -0.0136283 0.51196)
(0 -0.014354 0.513854)
(0 -0.015079 0.516055)
(0 -0.0158004 0.518612)
(0 -0.0165145 0.521578)
(0 -0.017216 0.525006)
(0 -0.0178963 0.528937)
(0 -0.0185398 0.533381)
(0 -0.0191173 0.538276)
(0 -0.0195726 0.543385)
(0 -0.0198069 0.548068)
(0 -0.0196733 0.55067)
(0 -0.0191288 0.547806)
(0 -0.0185518 0.542231)
(0 -0.0177294 0.531927)
(0 -0.0166293 0.515826)
(0 -0.0152759 0.493419)
(0 -0.0137354 0.465108)
(0 -0.0120943 0.432169)
(0 -0.0104391 0.396319)
(0 -0.00884095 0.359231)
(0 -0.0073507 0.322247)
(0 -0.00600004 0.286313)
(0 -0.00480509 0.252033)
(0 -0.0037704 0.219749)
(0 -0.00289231 0.189623)
(0 -0.00216174 0.161695)
(0 -0.0015663 0.135926)
(0 -0.00109187 0.11223)
(0 -0.000723698 0.0904913)
(0 -0.00044723 0.0705831)
(0 -0.000248668 0.0523733)
(0 -0.000115664 0.0357316)
(0 -3.76758e-05 0.0205332)
(0 -2.87746e-06 0.00666041)
(0 7.39105e-07 0.00421928)
(0 1.24506e-05 0.0131254)
(0 3.98995e-05 0.0230163)
(0 8.84688e-05 0.0340006)
(0 0.000163626 0.0461985)
(0 0.000272287 0.0597422)
(0 0.000423025 0.0747771)
(0 0.00062621 0.0914609)
(0 0.000894217 0.109963)
(0 0.00124163 0.130461)
(0 0.00168533 0.153133)
(0 0.0022443 0.178148)
(0 0.00293903 0.205639)
(0 0.00379014 0.235666)
(0 0.00481591 0.268156)
(0 0.00602821 0.302802)
(0 0.00742667 0.338949)
(0 0.00899151 0.37547)
(0 0.0106778 0.410752)
(0 0.0124168 0.442912)
(0 0.0141289 0.470284)
(0 0.0157399 0.491938)
(0 0.0171693 0.507878)
(0 0.0188245 0.523658)
(0 0.0199752 0.53116)
(0 0.0206305 0.532872)
(0 0.020932 0.532079)
(0 0.0209555 0.53023)
(0 0.0207627 0.527985)
(0 0.0204032 0.525652)
(0 0.0199162 0.523374)
(0 0.0193324 0.521213)
(0 0.0186766 0.519194)
(0 0.0179689 0.517321)
(0 0.0172256 0.515593)
(0 0.0164601 0.514002)
(0 0.0156831 0.51254)
(0 0.0149033 0.5112)
(0 0.0141276 0.509973)
(0 0.0133613 0.508854)
(0 0.0126089 0.507837)
(0 0.0118738 0.506916)
(0 0.0111589 0.506086)
(0 0.010467 0.505341)
(0 0.00980055 0.504678)
(0 0.00916141 0.504088)
(0 0.00855109 0.503568)
(0 0.00797055 0.50311)
(0 0.00742031 0.502709)
(0 0.00690042 0.502358)
(0 0.00641052 0.502054)
(0 0.0059499 0.50179)
(0 0.00551754 0.501562)
(0 0.00511216 0.501366)
(0 0.00473227 0.501197)
(0 0.00437625 0.501052)
(0 0.00404234 0.500928)
(0 0.00372876 0.500821)
(0 0.00343369 0.50073)
(0 0.00315534 0.500652)
(0 0.00289192 0.500586)
(0 0.00264175 0.500529)
(0 0.00240315 0.50048)
(0 0.00217455 0.500438)
(0 0.00195442 0.500403)
(0 0.00174126 0.500372)
(0 0.00153364 0.500346)
(0 0.00133011 0.500324)
(0 0.00112922 0.500306)
(0 0.000929485 0.500291)
(0 0.00072933 0.500279)
(0 0.00052704 0.50027)
(0 0.000320695 0.500264)
(0 0.00010808 0.500261)
(0 -0.000104227 0.500261)
(0 -0.000309041 0.500264)
(0 -0.000507907 0.50027)
(0 -0.000702837 0.500278)
(0 -0.000895573 0.500289)
(0 -0.00108766 0.500303)
(0 -0.00128053 0.50032)
(0 -0.00147551 0.50034)
(0 -0.00167391 0.500363)
(0 -0.001877 0.500391)
(0 -0.00208607 0.500423)
(0 -0.00230243 0.500461)
(0 -0.00252742 0.500505)
(0 -0.00276245 0.500556)
(0 -0.00300895 0.500615)
(0 -0.00326843 0.500683)
(0 -0.00354244 0.500763)
(0 -0.00383258 0.500855)
(0 -0.00414045 0.500963)
(0 -0.00446768 0.501088)
(0 -0.00481587 0.501232)
(0 -0.00518654 0.5014)
(0 -0.00558114 0.501594)
(0 -0.00600096 0.501817)
(0 -0.00644711 0.502075)
(0 -0.00692048 0.50237)
(0 -0.00742167 0.502707)
(0 -0.007951 0.503092)
(0 -0.00850842 0.50353)
(0 -0.00909351 0.504024)
(0 -0.00970544 0.504582)
(0 -0.010343 0.505207)
(0 -0.0110044 0.505906)
(0 -0.0116877 0.506683)
(0 -0.0123906 0.507543)
(0 -0.0131105 0.50849)
(0 -0.0138444 0.509529)
(0 -0.0145888 0.510666)
(0 -0.0153394 0.511905)
(0 -0.0160905 0.513253)
(0 -0.0168351 0.514716)
(0 -0.0175648 0.516302)
(0 -0.0182687 0.518018)
(0 -0.0189339 0.519868)
(0 -0.0195447 0.521853)
(0 -0.0200815 0.523964)
(0 -0.0205207 0.526172)
(0 -0.0208329 0.528408)
(0 -0.0209809 0.53052)
(0 -0.0209174 0.532195)
(0 -0.0205838 0.532774)
(0 -0.0199076 0.530846)
(0 -0.0187544 0.523297)
(0 -0.0171345 0.507879)
(0 -0.0157083 0.491927)
(0 -0.014102 0.47026)
(0 -0.0123939 0.442877)
(0 -0.0106584 0.410708)
(0 -0.00897513 0.37542)
(0 -0.00741301 0.338894)
(0 -0.00601694 0.302745)
(0 -0.00480671 0.268098)
(0 -0.00378274 0.235611)
(0 -0.00293315 0.205587)
(0 -0.0022397 0.1781)
(0 -0.00168179 0.153089)
(0 -0.00123896 0.130421)
(0 -0.000892253 0.109928)
(0 -0.000624805 0.0914313)
(0 -0.000422056 0.0747522)
(0 -0.000271649 0.0597218)
(0 -0.000163233 0.0461824)
(0 -8.82498e-05 0.0339885)
(0 -3.97963e-05 0.023008)
(0 -1.24157e-05 0.0131206)
(0 -7.35438e-07 0.00421771)
(0 3.19218e-07 0.00395293)
(0 4.49262e-06 0.0122592)
(0 1.43196e-05 0.0214379)
(0 3.18481e-05 0.0315753)
(0 5.93715e-05 0.0427647)
(0 9.99038e-05 0.0551074)
(0 0.00015732 0.0687124)
(0 0.000236524 0.0836969)
(0 0.000343686 0.100186)
(0 0.000486543 0.118313)
(0 0.000674732 0.138216)
(0 0.000920135 0.160037)
(0 0.00123717 0.18391)
(0 0.0016429 0.209949)
(0 0.00215668 0.23822)
(0 0.00279899 0.268681)
(0 0.00358874 0.301103)
(0 0.00453842 0.334941)
(0 0.00564704 0.369219)
(0 0.00689227 0.402504)
(0 0.0082273 0.433122)
(0 0.00959149 0.459615)
(0 0.0109435 0.481187)
(0 0.012844 0.505249)
(0 0.0146922 0.520616)
(0 0.0159924 0.527746)
(0 0.0168714 0.530629)
(0 0.017433 0.531252)
(0 0.0177514 0.530644)
(0 0.0178805 0.529364)
(0 0.0178606 0.527726)
(0 0.0177223 0.525917)
(0 0.0174892 0.524048)
(0 0.0171797 0.522186)
(0 0.0168081 0.520374)
(0 0.0163861 0.518636)
(0 0.015923 0.516987)
(0 0.0154265 0.515436)
(0 0.0149033 0.513986)
(0 0.0143589 0.512637)
(0 0.0137983 0.511388)
(0 0.013226 0.510237)
(0 0.0126462 0.509181)
(0 0.0120627 0.508215)
(0 0.0114794 0.507336)
(0 0.0108995 0.506538)
(0 0.0103263 0.505818)
(0 0.0097625 0.505169)
(0 0.00921059 0.504587)
(0 0.00867267 0.504067)
(0 0.00815049 0.503605)
(0 0.0076454 0.503194)
(0 0.00715842 0.502831)
(0 0.0066902 0.502511)
(0 0.00624104 0.502229)
(0 0.00581094 0.501982)
(0 0.00539959 0.501767)
(0 0.00500643 0.501578)
(0 0.00463067 0.501414)
(0 0.00427132 0.501271)
(0 0.00392723 0.501147)
(0 0.0035971 0.50104)
(0 0.00327956 0.500947)
(0 0.00297313 0.500867)
(0 0.0026763 0.500797)
(0 0.00238747 0.500738)
(0 0.002105 0.500687)
(0 0.00182722 0.500645)
(0 0.00155233 0.500609)
(0 0.00127846 0.500579)
(0 0.00100359 0.500556)
(0 0.000725456 0.500538)
(0 0.000441517 0.500525)
(0 0.000148811 0.500519)
(0 -0.000143522 0.500519)
(0 -0.000425496 0.500525)
(0 -0.000699159 0.500536)
(0 -0.000967204 0.500553)
(0 -0.00123195 0.500575)
(0 -0.00149542 0.500602)
(0 -0.00175947 0.500635)
(0 -0.00202579 0.500675)
(0 -0.00229598 0.500721)
(0 -0.00257157 0.500775)
(0 -0.00285403 0.500838)
(0 -0.00314479 0.50091)
(0 -0.00344524 0.500994)
(0 -0.00375669 0.50109)
(0 -0.00408042 0.501201)
(0 -0.00441763 0.501328)
(0 -0.00476939 0.501473)
(0 -0.00513668 0.501639)
(0 -0.00552032 0.501828)
(0 -0.00592095 0.502044)
(0 -0.006339 0.502289)
(0 -0.00677466 0.502567)
(0 -0.0072279 0.502882)
(0 -0.00769837 0.503237)
(0 -0.00818546 0.503636)
(0 -0.00868825 0.504084)
(0 -0.00920549 0.504585)
(0 -0.00973564 0.505144)
(0 -0.0102768 0.505764)
(0 -0.0108269 0.506451)
(0 -0.0113834 0.507208)
(0 -0.0119435 0.508041)
(0 -0.0125043 0.508953)
(0 -0.0130626 0.509947)
(0 -0.0136149 0.511029)
(0 -0.0141576 0.5122)
(0 -0.0146868 0.513463)
(0 -0.0151983 0.514821)
(0 -0.0156873 0.516273)
(0 -0.0161484 0.517817)
(0 -0.0165753 0.519448)
(0 -0.0169605 0.521157)
(0 -0.0172948 0.522926)
(0 -0.0175671 0.524729)
(0 -0.0177632 0.52652)
(0 -0.0178656 0.528229)
(0 -0.0178515 0.529741)
(0 -0.0176916 0.530865)
(0 -0.0173478 0.531285)
(0 -0.016769 0.530445)
(0 -0.0158859 0.527337)
(0 -0.0146016 0.520048)
(0 -0.0128 0.50482)
(0 -0.0109482 0.481338)
(0 -0.0095963 0.45976)
(0 -0.00823109 0.43326)
(0 -0.00689516 0.402635)
(0 -0.00564927 0.369344)
(0 -0.00454015 0.335061)
(0 -0.00359008 0.301218)
(0 -0.00280005 0.268792)
(0 -0.00215752 0.238325)
(0 -0.00164357 0.210048)
(0 -0.00123771 0.184001)
(0 -0.000920565 0.160121)
(0 -0.000675073 0.138293)
(0 -0.000486811 0.118381)
(0 -0.000343892 0.100246)
(0 -0.000236679 0.0837488)
(0 -0.000157433 0.0687564)
(0 -9.99834e-05 0.0551436)
(0 -5.94247e-05 0.0427935)
(0 -3.18811e-05 0.031597)
(0 -1.43376e-05 0.0214529)
(0 -4.50012e-06 0.0122679)
(0 -3.20867e-07 0.0039558)
(0 2.56088e-07 0.0033206)
(0 4.11918e-06 0.0103186)
(0 1.32116e-05 0.018077)
(0 2.93617e-05 0.0266765)
(0 5.44837e-05 0.0362064)
(0 9.10164e-05 0.0467643)
(0 0.000142004 0.0584571)
(0 0.000211168 0.0714014)
(0 0.000303024 0.0857235)
(0 0.000423027 0.101559)
(0 0.000577731 0.119053)
(0 0.000774959 0.138353)
(0 0.00102397 0.159612)
(0 0.00133555 0.182969)
(0 0.00172204 0.208534)
(0 0.00219698 0.236355)
(0 0.00277422 0.266351)
(0 0.00346595 0.298221)
(0 0.00427922 0.331323)
(0 0.00521097 0.364584)
(0 0.00624346 0.39655)
(0 0.00734337 0.425687)
(0 0.00846929 0.450826)
(0 0.0100671 0.4807)
(0 0.0117144 0.502358)
(0 0.0130164 0.514271)
(0 0.0140413 0.520751)
(0 0.0148378 0.524108)
(0 0.0154415 0.525604)
(0 0.0158814 0.525962)
(0 0.0161811 0.525613)
(0 0.0163598 0.524823)
(0 0.0164333 0.523762)
(0 0.0164149 0.522542)
(0 0.0163158 0.521238)
(0 0.0161458 0.519898)
(0 0.0159136 0.518557)
(0 0.0156266 0.517237)
(0 0.0152918 0.515955)
(0 0.0149156 0.514721)
(0 0.0145036 0.513543)
(0 0.0140614 0.512424)
(0 0.0135939 0.511367)
(0 0.0131058 0.510375)
(0 0.0126017 0.509446)
(0 0.0120857 0.508582)
(0 0.0115617 0.507781)
(0 0.0110334 0.507041)
(0 0.0105041 0.50636)
(0 0.00997684 0.505737)
(0 0.00945425 0.505169)
(0 0.0089387 0.504652)
(0 0.00843218 0.504185)
(0 0.00793633 0.503763)
(0 0.00745243 0.503384)
(0 0.00698143 0.503045)
(0 0.00652393 0.502743)
(0 0.00608022 0.502474)
(0 0.00565029 0.502235)
(0 0.00523388 0.502025)
(0 0.00483044 0.501839)
(0 0.00443923 0.501676)
(0 0.0040593 0.501533)
(0 0.00368951 0.501409)
(0 0.00332859 0.501301)
(0 0.00297508 0.501207)
(0 0.00262742 0.501127)
(0 0.00228386 0.501058)
(0 0.00194253 0.501001)
(0 0.00160134 0.500953)
(0 0.001258 0.500915)
(0 0.000909873 0.500886)
(0 0.000553965 0.500866)
(0 0.000186733 0.500856)
(0 -0.000180145 0.500856)
(0 -0.000533915 0.500866)
(0 -0.000876971 0.500884)
(0 -0.00121253 0.500911)
(0 -0.00154334 0.500946)
(0 -0.00187176 0.50099)
(0 -0.0021999 0.501043)
(0 -0.00252965 0.501106)
(0 -0.00286273 0.50118)
(0 -0.00320073 0.501265)
(0 -0.00354508 0.501364)
(0 -0.00389713 0.501477)
(0 -0.00425808 0.501606)
(0 -0.004629 0.501753)
(0 -0.00501083 0.50192)
(0 -0.00540434 0.502108)
(0 -0.0058101 0.502321)
(0 -0.00622852 0.50256)
(0 -0.00665975 0.502829)
(0 -0.00710373 0.503129)
(0 -0.00756013 0.503464)
(0 -0.00802833 0.503837)
(0 -0.00850744 0.504249)
(0 -0.00899626 0.504705)
(0 -0.00949329 0.505206)
(0 -0.00999672 0.505755)
(0 -0.0105045 0.506355)
(0 -0.0110141 0.507008)
(0 -0.0115229 0.507715)
(0 -0.012028 0.50848)
(0 -0.0125262 0.509302)
(0 -0.0130139 0.510183)
(0 -0.0134875 0.511123)
(0 -0.0139431 0.512123)
(0 -0.0143764 0.513181)
(0 -0.0147832 0.514295)
(0 -0.0151586 0.515461)
(0 -0.0154976 0.516675)
(0 -0.0157948 0.517928)
(0 -0.0160444 0.519208)
(0 -0.0162397 0.520498)
(0 -0.0163736 0.521775)
(0 -0.016438 0.523)
(0 -0.0164236 0.524124)
(0 -0.0163198 0.525069)
(0 -0.0161141 0.525722)
(0 -0.0157915 0.525908)
(0 -0.0153339 0.525361)
(0 -0.0147191 0.523651)
(0 -0.0139199 0.520066)
(0 -0.0129033 0.513377)
(0 -0.0116246 0.501375)
(0 -0.0100215 0.480017)
(0 -0.00846433 0.450865)
(0 -0.00733951 0.425717)
(0 -0.00624049 0.396567)
(0 -0.00520884 0.364588)
(0 -0.00427778 0.331315)
(0 -0.00346504 0.298202)
(0 -0.00277369 0.266324)
(0 -0.0021967 0.236321)
(0 -0.00172192 0.208496)
(0 -0.00133553 0.182928)
(0 -0.00102399 0.15957)
(0 -0.000775007 0.138312)
(0 -0.000577783 0.119013)
(0 -0.000423074 0.101522)
(0 -0.000303063 0.0856893)
(0 -0.000211196 0.0713709)
(0 -0.000142022 0.0584306)
(0 -9.10263e-05 0.0467419)
(0 -5.44875e-05 0.0361883)
(0 -2.93616e-05 0.0266626)
(0 -1.32097e-05 0.0180672)
(0 -4.11741e-06 0.0103129)
(0 -2.55172e-07 0.00331869)
(0 1.61528e-07 0.00307803)
(0 2.42907e-06 0.00956112)
(0 7.7709e-06 0.016744)
(0 1.72848e-05 0.0247003)
(0 3.2163e-05 0.0335107)
(0 5.3951e-05 0.0432641)
(0 8.46104e-05 0.0540574)
(0 0.000126585 0.0659968)
(0 0.000182905 0.0791977)
(0 0.000257306 0.0937851)
(0 0.000354384 0.109893)
(0 0.000479742 0.127665)
(0 0.000640168 0.147248)
(0 0.000843774 0.168787)
(0 0.00110009 0.192413)
(0 0.00142 0.218215)
(0 0.00181532 0.246195)
(0 0.00229785 0.27619)
(0 0.00287727 0.307765)
(0 0.00355767 0.340102)
(0 0.00433298 0.371981)
(0 0.00518556 0.401958)
(0 0.00609789 0.428747)
(0 0.0074812 0.461809)
(0 0.00905265 0.487515)
(0 0.0103634 0.502811)
(0 0.0114505 0.512015)
(0 0.0123496 0.517555)
(0 0.0130864 0.520807)
(0 0.0136808 0.522583)
(0 0.0141499 0.523381)
(0 0.0145078 0.523518)
(0 0.0147666 0.523208)
(0 0.0149365 0.522591)
(0 0.0150267 0.521769)
(0 0.0150449 0.520812)
(0 0.0149981 0.51977)
(0 0.0148925 0.518682)
(0 0.0147337 0.517573)
(0 0.0145269 0.516464)
(0 0.0142767 0.51537)
(0 0.0139876 0.514303)
(0 0.0136636 0.51327)
(0 0.0133087 0.512278)
(0 0.0129266 0.511331)
(0 0.0125209 0.510431)
(0 0.0120951 0.509582)
(0 0.0116525 0.508783)
(0 0.0111964 0.508036)
(0 0.0107299 0.50734)
(0 0.0102557 0.506694)
(0 0.00977677 0.506097)
(0 0.00929552 0.505548)
(0 0.00881427 0.505045)
(0 0.00833507 0.504586)
(0 0.00785969 0.504168)
(0 0.00738961 0.50379)
(0 0.00692599 0.503449)
(0 0.00646972 0.503142)
(0 0.00602134 0.502867)
(0 0.00558111 0.502622)
(0 0.005149 0.502404)
(0 0.00472467 0.502211)
(0 0.00430754 0.502041)
(0 0.00389676 0.501892)
(0 0.00349125 0.501762)
(0 0.00308967 0.50165)
(0 0.00269047 0.501553)
(0 0.00229183 0.501472)
(0 0.00189166 0.501404)
(0 0.00148757 0.50135)
(0 0.00107674 0.501309)
(0 0.0006559 0.50128)
(0 0.000221132 0.501265)
(0 -0.000213398 0.501265)
(0 -0.000632232 0.501279)
(0 -0.00103792 0.501305)
(0 -0.00143403 0.501344)
(0 -0.00182354 0.501394)
(0 -0.00220901 0.501457)
(0 -0.00259264 0.501532)
(0 -0.00297635 0.501621)
(0 -0.00336181 0.501724)
(0 -0.00375049 0.501843)
(0 -0.00414362 0.50198)
(0 -0.00454226 0.502135)
(0 -0.00494725 0.50231)
(0 -0.00535922 0.502507)
(0 -0.00577858 0.502729)
(0 -0.00620549 0.502977)
(0 -0.00663987 0.503253)
(0 -0.00708139 0.50356)
(0 -0.00752945 0.503899)
(0 -0.00798318 0.504273)
(0 -0.00844146 0.504684)
(0 -0.0089029 0.505135)
(0 -0.00936588 0.505626)
(0 -0.00982853 0.50616)
(0 -0.0102888 0.506738)
(0 -0.0107444 0.507362)
(0 -0.0111929 0.508033)
(0 -0.0116317 0.508751)
(0 -0.0120581 0.509516)
(0 -0.0124692 0.510329)
(0 -0.012862 0.511188)
(0 -0.0132336 0.512092)
(0 -0.0135807 0.513039)
(0 -0.0139001 0.514023)
(0 -0.0141882 0.515042)
(0 -0.0144415 0.516088)
(0 -0.0146562 0.517151)
(0 -0.0148281 0.518221)
(0 -0.014953 0.519281)
(0 -0.0150259 0.520309)
(0 -0.0150416 0.521278)
(0 -0.0149943 0.52215)
(0 -0.0148774 0.52287)
(0 -0.0146835 0.523369)
(0 -0.0144041 0.523543)
(0 -0.0140296 0.523248)
(0 -0.0135484 0.522272)
(0 -0.0129475 0.520298)
(0 -0.0122109 0.516832)
(0 -0.0113198 0.511079)
(0 -0.0102505 0.501706)
(0 -0.00896995 0.486399)
(0 -0.00744513 0.461123)
(0 -0.00609616 0.428872)
(0 -0.00518368 0.402083)
(0 -0.0043307 0.372101)
(0 -0.00355522 0.340217)
(0 -0.00287483 0.307875)
(0 -0.00229553 0.276296)
(0 -0.0018132 0.246296)
(0 -0.00141812 0.21831)
(0 -0.00109848 0.192502)
(0 -0.000842427 0.16887)
(0 -0.000639067 0.147325)
(0 -0.000478864 0.127736)
(0 -0.000353699 0.109957)
(0 -0.000256787 0.093842)
(0 -0.000182522 0.0792476)
(0 -0.000126313 0.0660398)
(0 -8.44242e-05 0.0540938)
(0 -5.38309e-05 0.043294)
(0 -3.20914e-05 0.0335345)
(0 -1.7247e-05 0.0247181)
(0 -7.75477e-06 0.0167564)
(0 -2.42468e-06 0.00956831)
(0 -1.61724e-07 0.00308039)
(0 1.2753e-07 0.00281973)
(0 2.00036e-06 0.00876347)
(0 6.41454e-06 0.0153546)
(0 1.42709e-05 0.0226624)
(0 2.65307e-05 0.0307635)
(0 4.44304e-05 0.0397422)
(0 6.95286e-05 0.0496914)
(0 0.000103753 0.0607126)
(0 0.000149471 0.0729175)
(0 0.000209586 0.0864274)
(0 0.000287636 0.101374)
(0 0.000387916 0.117898)
(0 0.000515604 0.136147)
(0 0.000676882 0.156272)
(0 0.000879029 0.178415)
(0 0.00113043 0.20269)
(0 0.00144039 0.229145)
(0 0.00181855 0.257699)
(0 0.00227369 0.288043)
(0 0.00281139 0.319534)
(0 0.00343079 0.351128)
(0 0.00412201 0.381485)
(0 0.00487139 0.409282)
(0 0.00601765 0.444494)
(0 0.00736156 0.473168)
(0 0.00853027 0.491046)
(0 0.00954475 0.502404)
(0 0.0104256 0.509739)
(0 0.0111862 0.514496)
(0 0.0118373 0.51754)
(0 0.0123882 0.519412)
(0 0.0128472 0.520462)
(0 0.0132213 0.520926)
(0 0.0135168 0.52097)
(0 0.0137395 0.520709)
(0 0.0138944 0.520228)
(0 0.0139863 0.519589)
(0 0.0140194 0.51884)
(0 0.0139978 0.518016)
(0 0.0139253 0.517143)
(0 0.0138055 0.516244)
(0 0.0136419 0.515333)
(0 0.0134377 0.514424)
(0 0.0131962 0.513526)
(0 0.0129207 0.512648)
(0 0.0126142 0.511795)
(0 0.0122797 0.510972)
(0 0.0119204 0.510183)
(0 0.0115391 0.50943)
(0 0.0111388 0.508717)
(0 0.0107222 0.508042)
(0 0.0102921 0.507409)
(0 0.00985098 0.506816)
(0 0.00940138 0.506264)
(0 0.00894551 0.505752)
(0 0.00848544 0.505279)
(0 0.00802302 0.504845)
(0 0.00755984 0.504447)
(0 0.00709725 0.504085)
(0 0.00663632 0.503756)
(0 0.00617784 0.503459)
(0 0.0057223 0.503192)
(0 0.0052699 0.502953)
(0 0.00482054 0.50274)
(0 0.00437382 0.502552)
(0 0.00392906 0.502386)
(0 0.00348526 0.502241)
(0 0.00304113 0.502117)
(0 0.00259507 0.502011)
(0 0.00214509 0.501923)
(0 0.00168887 0.501851)
(0 0.00122356 0.501797)
(0 0.000745799 0.501759)
(0 0.000251499 0.50174)
(0 -0.000242781 0.50174)
(0 -0.000718971 0.501758)
(0 -0.00117959 0.501793)
(0 -0.00162836 0.501843)
(0 -0.00206836 0.501909)
(0 -0.00250217 0.501991)
(0 -0.00293195 0.502089)
(0 -0.00335953 0.502204)
(0 -0.00378642 0.502337)
(0 -0.00421386 0.502489)
(0 -0.00464282 0.502662)
(0 -0.00507401 0.502857)
(0 -0.0055079 0.503075)
(0 -0.00594469 0.503319)
(0 -0.00638434 0.503589)
(0 -0.00682655 0.503888)
(0 -0.00727076 0.504216)
(0 -0.00771618 0.504577)
(0 -0.00816177 0.50497)
(0 -0.00860626 0.505398)
(0 -0.00904816 0.505862)
(0 -0.00948577 0.506362)
(0 -0.00991723 0.5069)
(0 -0.0103405 0.507475)
(0 -0.0107534 0.508087)
(0 -0.0111536 0.508738)
(0 -0.0115387 0.509424)
(0 -0.0119061 0.510147)
(0 -0.0122534 0.510903)
(0 -0.0125779 0.511691)
(0 -0.0128768 0.512508)
(0 -0.0131475 0.513348)
(0 -0.0133872 0.514208)
(0 -0.0135931 0.51508)
(0 -0.0137623 0.515956)
(0 -0.0138917 0.516826)
(0 -0.0139785 0.517676)
(0 -0.0140194 0.51849)
(0 -0.0140112 0.519245)
(0 -0.0139502 0.519915)
(0 -0.0138328 0.520461)
(0 -0.013655 0.520837)
(0 -0.0134125 0.520979)
(0 -0.0131004 0.520801)
(0 -0.0127135 0.520186)
(0 -0.012246 0.518968)
(0 -0.0116912 0.516912)
(0 -0.0110416 0.513669)
(0 -0.0102884 0.508705)
(0 -0.00942175 0.501176)
(0 -0.00842916 0.489684)
(0 -0.00729197 0.471852)
(0 -0.00599181 0.443699)
(0 -0.00487491 0.409347)
(0 -0.00412553 0.381545)
(0 -0.00343397 0.351179)
(0 -0.0028143 0.319576)
(0 -0.00227633 0.288076)
(0 -0.00182091 0.257724)
(0 -0.00144244 0.229164)
(0 -0.00113219 0.202703)
(0 -0.000880508 0.178423)
(0 -0.000678099 0.156276)
(0 -0.000516587 0.136148)
(0 -0.000388694 0.117896)
(0 -0.000288238 0.101371)
(0 -0.000210041 0.0864231)
(0 -0.000149806 0.0729127)
(0 -0.000103991 0.0607078)
(0 -6.96917e-05 0.0496867)
(0 -4.4536e-05 0.039738)
(0 -2.65941e-05 0.0307599)
(0 -1.43048e-05 0.0226595)
(0 -6.42939e-06 0.0153524)
(0 -2.00466e-06 0.00876218)
(0 -1.27543e-07 0.00281929)
(0 9.47648e-08 0.00265825)
(0 1.4589e-06 0.00826177)
(0 4.67652e-06 0.0144758)
(0 1.04102e-05 0.0213659)
(0 1.93759e-05 0.0290044)
(0 3.25001e-05 0.0374711)
(0 5.09578e-05 0.0468537)
(0 7.62124e-05 0.0572489)
(0 0.000110077 0.0687625)
(0 0.000154791 0.0815104)
(0 0.000213111 0.0956187)
(0 0.000288417 0.111224)
(0 0.000384823 0.128469)
(0 0.000507302 0.147506)
(0 0.000661794 0.168481)
(0 0.000855253 0.19152)
(0 0.00109559 0.216703)
(0 0.00139131 0.244002)
(0 0.00175071 0.273202)
(0 0.00218014 0.303789)
(0 0.00268125 0.33487)
(0 0.00324874 0.365217)
(0 0.00387539 0.393518)
(0 0.00485728 0.43008)
(0 0.00604964 0.46087)
(0 0.00711027 0.480688)
(0 0.00805183 0.493712)
(0 0.00889004 0.502467)
(0 0.00963461 0.508444)
(0 0.0102926 0.512542)
(0 0.01087 0.515327)
(0 0.0113718 0.517171)
(0 0.0118024 0.518327)
(0 0.0121659 0.518971)
(0 0.0124659 0.519232)
(0 0.0127056 0.519204)
(0 0.0128882 0.518957)
(0 0.0130166 0.518544)
(0 0.0130935 0.518009)
(0 0.0131216 0.517382)
(0 0.0131033 0.516691)
(0 0.0130413 0.515955)
(0 0.0129378 0.51519)
(0 0.0127952 0.514411)
(0 0.0126159 0.513627)
(0 0.0124022 0.512848)
(0 0.0121564 0.51208)
(0 0.0118809 0.511329)
(0 0.011578 0.510601)
(0 0.01125 0.509898)
(0 0.0108994 0.509223)
(0 0.0105284 0.50858)
(0 0.0101395 0.507969)
(0 0.00973472 0.507393)
(0 0.00931642 0.50685)
(0 0.00888663 0.506343)
(0 0.00844731 0.505871)
(0 0.00800025 0.505433)
(0 0.00754705 0.505029)
(0 0.0070891 0.504658)
(0 0.00662754 0.504319)
(0 0.00616327 0.504011)
(0 0.00569688 0.503732)
(0 0.00522871 0.503482)
(0 0.00475875 0.503258)
(0 0.00428669 0.50306)
(0 0.0038119 0.502886)
(0 0.0033334 0.502735)
(0 0.00284983 0.502605)
(0 0.00235944 0.502497)
(0 0.00186005 0.502409)
(0 0.00134894 0.502341)
(0 0.000822785 0.502295)
(0 0.000277534 0.50227)
(0 -0.000268001 0.50227)
(0 -0.000793285 0.502293)
(0 -0.00130063 0.502336)
(0 -0.00179375 0.502399)
(0 -0.00227565 0.50248)
(0 -0.00274885 0.502581)
(0 -0.00321536 0.502701)
(0 -0.00367683 0.502841)
(0 -0.00413455 0.503002)
(0 -0.00458949 0.503184)
(0 -0.00504232 0.50339)
(0 -0.00549343 0.50362)
(0 -0.00594292 0.503875)
(0 -0.00639063 0.504158)
(0 -0.00683615 0.504468)
(0 -0.00727882 0.504807)
(0 -0.00771774 0.505176)
(0 -0.00815181 0.505576)
(0 -0.00857971 0.506008)
(0 -0.00899996 0.506472)
(0 -0.00941093 0.506968)
(0 -0.00981084 0.507496)
(0 -0.0101978 0.508057)
(0 -0.0105699 0.508648)
(0 -0.0109251 0.50927)
(0 -0.0112613 0.50992)
(0 -0.0115764 0.510597)
(0 -0.0118684 0.511297)
(0 -0.0121352 0.512018)
(0 -0.0123746 0.512755)
(0 -0.0125846 0.513504)
(0 -0.0127631 0.514258)
(0 -0.012908 0.51501)
(0 -0.0130173 0.51575)
(0 -0.0130888 0.516468)
(0 -0.0131204 0.51715)
(0 -0.0131101 0.517778)
(0 -0.0130554 0.518332)
(0 -0.0129541 0.518786)
(0 -0.0128038 0.519106)
(0 -0.012602 0.51925)
(0 -0.0123459 0.519163)
(0 -0.0120328 0.518774)
(0 -0.0116594 0.517988)
(0 -0.0112225 0.516676)
(0 -0.0107185 0.514663)
(0 -0.0101431 0.511695)
(0 -0.00949151 0.507406)
(0 -0.00875827 0.501237)
(0 -0.00793664 0.492308)
(0 -0.00701748 0.479183)
(0 -0.00598647 0.459464)
(0 -0.00483285 0.42927)
(0 -0.00387536 0.393607)
(0 -0.00324849 0.365303)
(0 -0.00268067 0.334951)
(0 -0.00217939 0.303865)
(0 -0.00174989 0.273272)
(0 -0.00139049 0.244067)
(0 -0.00109481 0.216763)
(0 -0.000854541 0.191576)
(0 -0.000661166 0.168532)
(0 -0.000506765 0.147553)
(0 -0.000384375 0.128512)
(0 -0.000288054 0.111261)
(0 -0.000212825 0.0956524)
(0 -0.00015457 0.0815399)
(0 -0.000109912 0.0687881)
(0 -7.60939e-05 0.0572707)
(0 -5.0876e-05 0.046872)
(0 -3.24466e-05 0.0374861)
(0 -1.93435e-05 0.0290162)
(0 -1.03928e-05 0.0213748)
(0 -4.66886e-06 0.0144819)
(0 -1.45667e-06 0.00826528)
(0 -9.47561e-08 0.00265939)
(0 7.75091e-08 0.00251627)
(0 1.20668e-06 0.00782184)
(0 3.87095e-06 0.0137071)
(0 8.61857e-06 0.0202347)
(0 1.60398e-05 0.0274737)
(0 2.68975e-05 0.0355007)